iupac,smiles,expt,calc,Description
"3,4-dimethylpyridine",Cc1ccncc1C,-5.22,-3.201,"cid is 15050,compound_name is Trimethyl orthoacetate,cid_paras is 15050,Molecular_Weight is 120.15,XLogP3 is 0.2,Hydrogen_Bond_Donor_Count is 0,Hydrogen_Bond_Acceptor_Count is 3,Rotatable_Bond_Count is 3,Exact_Mass is 120.078644241,Monoisotopic_Mass is 120.078644241,Topological_Polar_Surface_Area is 27.7,""Unit"":""Å²"",Heavy_Atom_Count is 8,Formal_Charge is 0,Complexity is 50.4,Isotope_Atom_Count is 0,Defined_Atom_Stereocenter_Count is 0,Undefined_Atom_Stereocenter_Count is 0,Defined_Bond_Stereocenter_Count is 0,Undefined_Bond_Stereocenter_Count is 0,Covalently_Bonded_Unit_Count is 1,Compound_Is_Canonicalized is Yes,Physical_Description is Liquid"
cyanuric acid,c1(=O)[nH]c(=O)[nH]c(=O)[nH]1,-18.06,-21.762,"cid is 7705,compound_name is Butylbenzene,cid_paras is 7705,Molecular_Weight is 134.22,XLogP3 is 4.4,Hydrogen_Bond_Donor_Count is 0,Hydrogen_Bond_Acceptor_Count is 0,Rotatable_Bond_Count is 3,Exact_Mass is 134.109550447,Monoisotopic_Mass is 134.109550447,Topological_Polar_Surface_Area is 0,""Unit"":""Å²"",Heavy_Atom_Count is 10,Formal_Charge is 0,Complexity is 70.1,Isotope_Atom_Count is 0,Defined_Atom_Stereocenter_Count is 0,Undefined_Atom_Stereocenter_Count is 0,Defined_Bond_Stereocenter_Count is 0,Undefined_Bond_Stereocenter_Count is 0,Covalently_Bonded_Unit_Count is 1,Compound_Is_Canonicalized is Yes,Physical_Description is N-butylbenzeneappearsasacolorlessliquid.Lessdensethanwaterandinsolubleinwater.Usedtomakeplasticsandasasolvent."",""Markup"":[{""Start"":0,""Length"":14,""URL"":""https://pubchem.ncbi.nlm.nih.gov/compound/N-butylbenzene"",""Type"":""PubChemInternalLink"",""Extra"":""CID-7705"",Color/Form is Colorlessliquid,Boiling_Point is 183.3°C,Melting_Point is -87.9°C,Flash_Point is 160°F(NFPA,2010),Solubility is Misciblewithalcohol,ether,benzene"",""Markup"":[{""Start"":30,""Length"":7,""URL"":""https://pubchem.ncbi.nlm.nih.gov/compound/benzene"",""Type"":""PubChemInternalLink"",""Extra"":""CID-241,Density is 0.8601g/cucm@20°C"
benzaldehyde,c1ccc(cc1)C=O,-4.02,-5.058,"cid is 949,compound_name is N,N-Dimethylaniline,cid_paras is 949,Molecular_Weight is 121.18,XLogP3 is 2.3,Hydrogen_Bond_Donor_Count is 0,Hydrogen_Bond_Acceptor_Count is 1,Rotatable_Bond_Count is 1,Exact_Mass is 121.089149355,Monoisotopic_Mass is 121.089149355,Topological_Polar_Surface_Area is 3.2,""Unit"":""Å²"",Heavy_Atom_Count is 9,Formal_Charge is 0,Complexity is 72.6,Isotope_Atom_Count is 0,Defined_Atom_Stereocenter_Count is 0,Undefined_Atom_Stereocenter_Count is 0,Defined_Bond_Stereocenter_Count is 0,Undefined_Bond_Stereocenter_Count is 0,Covalently_Bonded_Unit_Count is 1,Compound_Is_Canonicalized is Yes,Physical_Description is N,n-dimethylanilineappearsasayellowtobrowncoloredoilyliquidwithafishlikeodor.Lessdensethanwaterandinsolubleinwater.Flashpoint150°F.Toxicbyingestion,inhalation,andskinabsorption.Usedtomakedyesandasasolvent."",""Markup"":[{""Start"":0,""Length"":19,""URL"":""https://pubchem.ncbi.nlm.nih.gov/compound/N%2Cn-dimethylaniline"",""Type"":""PubChemInternalLink"",""Extra"":""CID-949"",Color/Form is Pale-yellow,oilyliquid[Note:Asolidbelow36degreesF],Odor is Amine-likeodor,Boiling_Point is 381°Fat760mmHg(NTP,1992),Melting_Point is 36.4°F(NTP,1992),Flash_Point is 145°F(NTP,1992),Solubility is lessthan1mg/mLat70°F(NTP,1992),Density is 0.9557at68°F(NTP,1992)-Lessdensethanwater;willfloat"",""Markup"":[{""Start"":46,""Length"":5,""URL"":""https://pubchem.ncbi.nlm.nih.gov/compound/water"",""Type"":""PubChemInternalLink"",""Extra"":""CID-962"
2-chloropyridine,c1ccnc(c1)Cl,-4.39,-3.873,"cid is 11721,compound_name is 2-Methoxypropane,cid_paras is 11721,Molecular_Weight is 74.12,XLogP3 is 0.9,Hydrogen_Bond_Donor_Count is 0,Hydrogen_Bond_Acceptor_Count is 1,Rotatable_Bond_Count is 1,Exact_Mass is 74.073164938,Monoisotopic_Mass is 74.073164938,Topological_Polar_Surface_Area is 9.2,""Unit"":""Å²"",Heavy_Atom_Count is 5,Formal_Charge is 0,Complexity is 17.6,Isotope_Atom_Count is 0,Defined_Atom_Stereocenter_Count is 0,Undefined_Atom_Stereocenter_Count is 0,Defined_Bond_Stereocenter_Count is 0,Undefined_Bond_Stereocenter_Count is 0,Covalently_Bonded_Unit_Count is 1,Compound_Is_Canonicalized is Yes"
3-chloroprop-1-ene,C=CCCl,-0.57,0.944,"cid is 18636,compound_name is OCTACHLORODIBENZO-p-DIOXIN,cid_paras is 18636,Molecular_Weight is 459.7,XLogP3 is 8.1,Hydrogen_Bond_Donor_Count is 0,Hydrogen_Bond_Acceptor_Count is 2,Rotatable_Bond_Count is 0,Exact_Mass is 459.734751,Monoisotopic_Mass is 455.740651,Topological_Polar_Surface_Area is 18.5,""Unit"":""Å²"",Heavy_Atom_Count is 22,Formal_Charge is 0,Complexity is 354,Isotope_Atom_Count is 0,Defined_Atom_Stereocenter_Count is 0,Undefined_Atom_Stereocenter_Count is 0,Defined_Bond_Stereocenter_Count is 0,Undefined_Bond_Stereocenter_Count is 0,Covalently_Bonded_Unit_Count is 1,Compound_Is_Canonicalized is Yes,Physical_Description is Octachlorodibenzo-p-dioxinappearsascolorlesscrystalsorwhitecrystallinesolid.(NTP,1992)"",""Markup"":[{""Start"":0,""Length"":26,""URL"":""https://pubchem.ncbi.nlm.nih.gov/compound/Octachlorodibenzo-p-dioxin"",""Type"":""PubChemInternalLink"",""Extra"":""CID-18636,Color/Form is Colorlesscrystalsorneedlesfromtrichlorobenzene,Melting_Point is 626°F(NTP,1992),Solubility is lessthan1mg/mLat68°F(NTP,1992)"
1-(p-tolyl)ethanone,Cc1ccc(cc1)C(=O)C,-4.7,-4.91,"cid is 16318,compound_name is Decachlorobiphenyl,cid_paras is 16318,Molecular_Weight is 498.6,XLogP3 is 8.3,Hydrogen_Bond_Donor_Count is 0,Hydrogen_Bond_Acceptor_Count is 0,Rotatable_Bond_Count is 1,Exact_Mass is 497.682627,Monoisotopic_Mass is 493.688527,Topological_Polar_Surface_Area is 0,""Unit"":""Å²"",Heavy_Atom_Count is 22,Formal_Charge is 0,Complexity is 326,Isotope_Atom_Count is 0,Defined_Atom_Stereocenter_Count is 0,Undefined_Atom_Stereocenter_Count is 0,Defined_Bond_Stereocenter_Count is 0,Undefined_Bond_Stereocenter_Count is 0,Covalently_Bonded_Unit_Count is 1,Compound_Is_Canonicalized is Yes"
formaldehyde,C=O,-2.75,-3.155,"cid is 6574,compound_name is 1,1,2-Trichloroethane,cid_paras is 6574,Molecular_Weight is 133.40,XLogP3 is 1.9,Hydrogen_Bond_Donor_Count is 0,Hydrogen_Bond_Acceptor_Count is 0,Rotatable_Bond_Count is 1,Exact_Mass is 131.930033,Monoisotopic_Mass is 131.930033,Topological_Polar_Surface_Area is 0,""Unit"":""Å²"",Heavy_Atom_Count is 5,Formal_Charge is 0,Complexity is 18.9,Isotope_Atom_Count is 0,Defined_Atom_Stereocenter_Count is 0,Undefined_Atom_Stereocenter_Count is 0,Defined_Bond_Stereocenter_Count is 0,Undefined_Bond_Stereocenter_Count is 0,Covalently_Bonded_Unit_Count is 1,Compound_Is_Canonicalized is Yes,Physical_Description is 1,1,2-trichloroethaneappearsasaclearlightcoloredliquid.Insolubleinwaterandslightlydenserthanwater.Hencesinksinwater.Maybetoxicbyinhalation."",""Markup"":[{""Start"":0,""Length"":21,""URL"":""https://pubchem.ncbi.nlm.nih.gov/compound/1%2C1%2C2-trichloroethane"",""Type"":""PubChemInternalLink"",""Extra"":""CID-6574"",Color/Form is Clear,colorlessliquid,Odor is Pleasantodor,Boiling_Point is 235°Fat760mmHg(NTP,1992),Melting_Point is -35°F(NTP,1992),Solubility is 1to5mg/mLat68°F(NTP,1992),Density is 1.44at68°F(USCG,1999)-Denserthanwater;willsink"",""Markup"":[{""Start"":41,""Length"":5,""URL"":""https://pubchem.ncbi.nlm.nih.gov/compound/water"",""Type"":""PubChemInternalLink"",""Extra"":""CID-962"
1-chloro-2-methyl-benzene,Cc1ccccc1Cl,-1.14,-0.473,"cid is 7515,compound_name is N-Methylaniline,cid_paras is 7515,Molecular_Weight is 107.15,XLogP3 is 1.7,Hydrogen_Bond_Donor_Count is 1,Hydrogen_Bond_Acceptor_Count is 1,Rotatable_Bond_Count is 1,Exact_Mass is 107.073499291,Monoisotopic_Mass is 107.073499291,Topological_Polar_Surface_Area is 12,""Unit"":""Å²"",Heavy_Atom_Count is 8,Formal_Charge is 0,Complexity is 55.4,Isotope_Atom_Count is 0,Defined_Atom_Stereocenter_Count is 0,Undefined_Atom_Stereocenter_Count is 0,Defined_Bond_Stereocenter_Count is 0,Undefined_Bond_Stereocenter_Count is 0,Covalently_Bonded_Unit_Count is 1,Compound_Is_Canonicalized is Yes,Physical_Description is N-methylanilineappearsasacolorlesstobrownviscousliquid.Insolubleinwateranddenserthanwater.Contactmayirritateskin,eyesandmucousmembranes.Maybetoxicbyingestion.Usedtomakeotherchemicals."",""Markup"":[{""Start"":0,""Length"":15,""URL"":""https://pubchem.ncbi.nlm.nih.gov/compound/N-methylaniline"",""Type"":""PubChemInternalLink"",""Extra"":""CID-7515"",Color/Form is COLORLESSORSLIGHTLYYELLOWLIQ,Odor is Weak,ammonia-likeodor.,Boiling_Point is 385.3°Fat760mmHg(NTP,1992),Melting_Point is -71°F(NTP,1992),Flash_Point is 175°F(NTP,1992),Solubility is 1to5mg/mLat70.7°F(NTP,1992),Density is 0.989at68°F(USCG,1999)-Lessdensethanwater;willfloat"",""Markup"":[{""Start"":46,""Length"":5,""URL"":""https://pubchem.ncbi.nlm.nih.gov/compound/water"",""Type"":""PubChemInternalLink"",""Extra"":""CID-962"
1-pyrrolidin-1-ylethanone,CC(=O)N1CCCC1,-9.8,-7.831,"cid is 7915,compound_name is Isopropyl acetate,cid_paras is 7915,Molecular_Weight is 102.13,XLogP3 is 0.9,Hydrogen_Bond_Donor_Count is 0,Hydrogen_Bond_Acceptor_Count is 2,Rotatable_Bond_Count is 2,Exact_Mass is 102.068079557,Monoisotopic_Mass is 102.068079557,Topological_Polar_Surface_Area is 26.3,""Unit"":""Å²"",Heavy_Atom_Count is 7,Formal_Charge is 0,Complexity is 66.5,Isotope_Atom_Count is 0,Defined_Atom_Stereocenter_Count is 0,Undefined_Atom_Stereocenter_Count is 0,Defined_Bond_Stereocenter_Count is 0,Undefined_Bond_Stereocenter_Count is 0,Covalently_Bonded_Unit_Count is 1,Compound_Is_Canonicalized is Yes,Physical_Description is Isopropylacetateappearsasaclearcolorlessliquid.Flashpoint40°F.Vaporsareheavierthanair.Contactwiththematerialmayirritateskin,eyesormucousmembranes.Maybetoxicbyingestion,inhalationandskinabsorption.Usedasasolvent."",""Markup"":[{""Start"":0,""Length"":17,""URL"":""https://pubchem.ncbi.nlm.nih.gov/compound/Isopropyl%20acetate"",""Type"":""PubChemInternalLink"",""Extra"":""CID-7915,Color/Form is Water-whiteliquid,Odor is Aromatic,Boiling_Point is 190to196°Fat743.3mmHg(NTP,1992),Melting_Point is -100.1°F(NTP,1992),Flash_Point is 36°F(NTP,1992),Solubility is 1to10mg/mLat68°F(NTP,1992),Density is 0.874at68°F(USCG,1999)-Lessdensethanwater;willfloat"",""Markup"":[{""Start"":46,""Length"":5,""URL"":""https://pubchem.ncbi.nlm.nih.gov/compound/water"",""Type"":""PubChemInternalLink"",""Extra"":""CID-962"
"1,1,1-trimethoxyethane",CC(OC)(OC)OC,-4.42,-3.7,"cid is 241,compound_name is Benzene,cid_paras is 241,Molecular_Weight is 78.11,XLogP3 is 2.1,Hydrogen_Bond_Donor_Count is 0,Hydrogen_Bond_Acceptor_Count is 0,Rotatable_Bond_Count is 0,Exact_Mass is 78.0469501914,Monoisotopic_Mass is 78.0469501914,Topological_Polar_Surface_Area is 0,""Unit"":""Å²"",Heavy_Atom_Count is 6,Formal_Charge is 0,Complexity is 15.5,Isotope_Atom_Count is 0,Defined_Atom_Stereocenter_Count is 0,Undefined_Atom_Stereocenter_Count is 0,Defined_Bond_Stereocenter_Count is 0,Undefined_Bond_Stereocenter_Count is 0,Covalently_Bonded_Unit_Count is 1,Compound_Is_Canonicalized is Yes,Physical_Description is Benzeneappearsasaclearcolorlessliquidwithapetroleum-likeodor.Flashpointlessthan0°F.Lessdensethanwaterandslightlysolubleinwater.Hencefloatsonwater.Vaporsareheavierthanair."",""Markup"":[{""Start"":0,""Length"":7,""URL"":""https://pubchem.ncbi.nlm.nih.gov/compound/Benzene"",""Type"":""PubChemInternalLink"",""Extra"":""CID-241"",Color/Form is Clear,colorlessliquid,Odor is Aromaticodor,Boiling_Point is 176.2°Fat760mmHg(NTP,1992),Melting_Point is 41.9°F(NTP,1992),Flash_Point is 12°F(NTP,1992),Solubility is 1to5mg/mLat64°F(NTP,1992),Density is 0.879at68°F(USCG,1999)-Lessdensethanwater;willfloat"",""Markup"":[{""Start"":46,""Length"":5,""URL"":""https://pubchem.ncbi.nlm.nih.gov/compound/water"",""Type"":""PubChemInternalLink"",""Extra"":""CID-962"
butylbenzene,CCCCc1ccccc1,-0.4,-0.227,"cid is 6895,compound_name is 1,2,3-Trichlorobenzene,cid_paras is 6895,Molecular_Weight is 181.4,XLogP3 is 4.1,Hydrogen_Bond_Donor_Count is 0,Hydrogen_Bond_Acceptor_Count is 0,Rotatable_Bond_Count is 0,Exact_Mass is 179.930033,Monoisotopic_Mass is 179.930033,Topological_Polar_Surface_Area is 0,""Unit"":""Å²"",Heavy_Atom_Count is 9,Formal_Charge is 0,Complexity is 84.3,Isotope_Atom_Count is 0,Defined_Atom_Stereocenter_Count is 0,Undefined_Atom_Stereocenter_Count is 0,Defined_Bond_Stereocenter_Count is 0,Undefined_Bond_Stereocenter_Count is 0,Covalently_Bonded_Unit_Count is 1,Compound_Is_Canonicalized is Yes,Physical_Description is 1,2,3-trichlorobenzeneappearsasawhitesolidwithasharpchlorobenzeneodor.Insolubleinwateranddenserthanwater.Hencesinksinwater.Meltingpoint63-64°C(145-147°F)."",""Markup"":[{""Start"":0,""Length"":22,""URL"":""https://pubchem.ncbi.nlm.nih.gov/compound/1%2C2%2C3-trichlorobenzene"",""Type"":""PubChemInternalLink"",""Extra"":""CID-6895"",Color/Form is Plateletsfromalcohol,Boiling_Point is 424to426°Fat760mmHg(NTP,1992),Melting_Point is 126.7°F(NTP,1992),Flash_Point is 234.9°F(NTP,1992),Solubility is Insoluble(NTP,1992),Density is 1.69at77°F(USCG,1999)-Denserthanwater;willsink"",""Markup"":[{""Start"":41,""Length"":5,""URL"":""https://pubchem.ncbi.nlm.nih.gov/compound/water"",""Type"":""PubChemInternalLink"",""Extra"":""CID-962"
"N,N-dimethylaniline",CN(C)c1ccccc1,-3.45,-4.426,"cid is 13081,compound_name is Carbophenothion,cid_paras is 13081,Molecular_Weight is 342.9,XLogP3 is 5.3,Hydrogen_Bond_Donor_Count is 0,Hydrogen_Bond_Acceptor_Count is 5,Rotatable_Bond_Count is 8,Exact_Mass is 341.9738580,Monoisotopic_Mass is 341.9738580,Topological_Polar_Surface_Area is 101,""Unit"":""Å²"",Heavy_Atom_Count is 18,Formal_Charge is 0,Complexity is 263,Isotope_Atom_Count is 0,Defined_Atom_Stereocenter_Count is 0,Undefined_Atom_Stereocenter_Count is 0,Defined_Bond_Stereocenter_Count is 0,Undefined_Bond_Stereocenter_Count is 0,Covalently_Bonded_Unit_Count is 1,Compound_Is_Canonicalized is Yes,Physical_Description is Carbophenothionappearsasanoff-whitetoamberliquidwithamildodorofrotteneggs.Usedasaninsecticideandacaricide,primarilyforcitruscropsanddeciduousfruitsandnuts.(EPA,1998)"",""Markup"":[{""Start"":0,""Length"":15,""URL"":""https://pubchem.ncbi.nlm.nih.gov/compound/Carbophenothion"",""Type"":""PubChemInternalLink"",""Extra"":""CID-13081,Color/Form is COLORLESSLIQ,Odor is MERCAPTAN-LIKEODOR,Boiling_Point is 180°Fat0.01mmHg(EPA,1998),Solubility is Misciblewithvegetableoilsandmostorgsolvents,Density is 1.271at77°F(EPA,1998)-Denserthanwater;willsink"",""Markup"":[{""Start"":41,""Length"":5,""URL"":""https://pubchem.ncbi.nlm.nih.gov/compound/water"",""Type"":""PubChemInternalLink"",""Extra"":""CID-962"
2-methoxypropane,CC(C)OC,-2.01,-0.657,"cid is 2268,compound_name is Azinphos-methyl,cid_paras is 2268,Molecular_Weight is 317.3,XLogP3 is 2.8,Hydrogen_Bond_Donor_Count is 0,Hydrogen_Bond_Acceptor_Count is 7,Rotatable_Bond_Count is 5,Exact_Mass is 317.00577060,Monoisotopic_Mass is 317.00577060,Topological_Polar_Surface_Area is 121,""Unit"":""Å²"",Heavy_Atom_Count is 19,Formal_Charge is 0,Complexity is 413,Isotope_Atom_Count is 0,Defined_Atom_Stereocenter_Count is 0,Undefined_Atom_Stereocenter_Count is 0,Defined_Bond_Stereocenter_Count is 0,Undefined_Bond_Stereocenter_Count is 0,Covalently_Bonded_Unit_Count is 1,Compound_Is_Canonicalized is Yes,Physical_Description is Azinphosmethylisacolorlessbrown,waxyorwhitecrystallinesoliddissolvedinaliquidcarrier.Itisusedasapesticide.Itisaddedtowatertocreateawateremulsifiableliquid.Itistoxicbyinhalation,skinabsorption,and/oringestion.Itisheavierthanandinsolubleinwater.Incaseofdamageto,leakingfromcontainersofthismaterialcontactCHEMTREC,800-424-9300."",""Markup"":[{""Start"":0,""Length"":15,""URL"":""https://pubchem.ncbi.nlm.nih.gov/compound/Azinphos%20methyl"",""Type"":""PubChemInternalLink"",""Extra"":""CID-2268"",Color/Form is Yellowishcrystals,Odor is Odorless,Boiling_Point is Decomposes(NTP,1992),Melting_Point is 163to165°F(EPA,1998),Solubility is lessthan1mg/mLat66°F(NTP,1992),Density is 1.44at68°F(EPA,1998)-Denserthanwater;willsink"",""Markup"":[{""Start"":40,""Length"":5,""URL"":""https://pubchem.ncbi.nlm.nih.gov/compound/water"",""Type"":""PubChemInternalLink"",""Extra"":""CID-962"
"1,2,3,4,6,7,8,9-octachlorodibenzo-p-dioxin",c12c(c(c(c(c1Cl)Cl)Cl)Cl)Oc3c(c(c(c(c3Cl)Cl)Cl)Cl)O2,-4.53,-1.147,"cid is 38253,compound_name is 1,2,4-Trichlorodibenzo-P-dioxin,cid_paras is 38253,Molecular_Weight is 287.5,XLogP3 is 4.9,Hydrogen_Bond_Donor_Count is 0,Hydrogen_Bond_Acceptor_Count is 2,Rotatable_Bond_Count is 0,Exact_Mass is 285.935512,Monoisotopic_Mass is 285.935512,Topological_Polar_Surface_Area is 18.5,""Unit"":""Å²"",Heavy_Atom_Count is 17,Formal_Charge is 0,Complexity is 289,Isotope_Atom_Count is 0,Defined_Atom_Stereocenter_Count is 0,Undefined_Atom_Stereocenter_Count is 0,Defined_Bond_Stereocenter_Count is 0,Undefined_Bond_Stereocenter_Count is 0,Covalently_Bonded_Unit_Count is 1,Compound_Is_Canonicalized is Yes"
"1,2,3,4,5-pentachloro-6-(2,3,4,5,6-pentachlorophenyl)benzene",c1(c(c(c(c(c1Cl)Cl)Cl)Cl)Cl)c2c(c(c(c(c2Cl)Cl)Cl)Cl)Cl,-2.98,0.76,"cid is 10566,compound_name is 2,3-Dimethyl-1,3-butadiene,cid_paras is 10566,Molecular_Weight is 82.14,XLogP3 is 3.1,Hydrogen_Bond_Donor_Count is 0,Hydrogen_Bond_Acceptor_Count is 0,Rotatable_Bond_Count is 1,Exact_Mass is 82.078250319,Monoisotopic_Mass is 82.078250319,Topological_Polar_Surface_Area is 0,""Unit"":""Å²"",Heavy_Atom_Count is 6,Formal_Charge is 0,Complexity is 66,Isotope_Atom_Count is 0,Defined_Atom_Stereocenter_Count is 0,Undefined_Atom_Stereocenter_Count is 0,Defined_Bond_Stereocenter_Count is 0,Undefined_Bond_Stereocenter_Count is 0,Covalently_Bonded_Unit_Count is 1,Compound_Is_Canonicalized is Yes,Physical_Description is Liquid;[MerckIndex]"
"1,1,2-trichloroethane",C(C(Cl)Cl)Cl,-1.99,-0.384,"cid is 11597,compound_name is 1-Hexene,cid_paras is 11597,Molecular_Weight is 84.16,XLogP3 is 3.4,Hydrogen_Bond_Donor_Count is 0,Hydrogen_Bond_Acceptor_Count is 0,Rotatable_Bond_Count is 3,Exact_Mass is 84.093900383,Monoisotopic_Mass is 84.093900383,Topological_Polar_Surface_Area is 0,""Unit"":""Å²"",Heavy_Atom_Count is 6,Formal_Charge is 0,Complexity is 29,Isotope_Atom_Count is 0,Defined_Atom_Stereocenter_Count is 0,Undefined_Atom_Stereocenter_Count is 0,Defined_Bond_Stereocenter_Count is 0,Undefined_Bond_Stereocenter_Count is 0,Covalently_Bonded_Unit_Count is 1,Compound_Is_Canonicalized is Yes,Physical_Description is 1-hexeneappearsasaclearcolorlessliquidwithapetroleumlikeodor.Flashpoint-9°F.Lessdensethanwaterandinsolubleinwater.Vaporsheavierthanair.Usedasasolvent,paintthinner,andchemicalreactionmedium."",""Markup"":[{""Start"":0,""Length"":8,""URL"":""https://pubchem.ncbi.nlm.nih.gov/compound/1-hexene"",""Type"":""PubChemInternalLink"",""Extra"":""CID-11597"",Color/Form is Colorlessliquid,Boiling_Point is 146.3°Fat760mmHg(USCG,1999),Melting_Point is -219.6°F(USCG,1999),Flash_Point is -15°F(USCG,1999),Solubility is Verysolinethanol,ethylether,benzene,andpetroleumether"",""Markup"":[{""Start"":12,""Length"":7,""URL"":""https://pubchem.ncbi.nlm.nih.gov/compound/ethanol"",""Type"":""PubChemInternalLink"",""Extra"":""CID-702"",Density is 0.673at68°F(USCG,1999)-Lessdensethanwater;willfloat"",""Markup"":[{""Start"":46,""Length"":5,""URL"":""https://pubchem.ncbi.nlm.nih.gov/compound/water"",""Type"":""PubChemInternalLink"",""Extra"":""CID-962"