iupac,smiles,expt,calc,Description
"1,3,5-trichloro-2-(2,6-dichlorophenyl)benzene",c1cc(c(c(c1)Cl)c2c(cc(cc2Cl)Cl)Cl)Cl,-1.96,-0.477,"cid is 6337,compound_name is Chloroethane,cid_paras is 6337,Molecular_Weight is 64.51,XLogP3 is 1.2,Hydrogen_Bond_Donor_Count is 0,Hydrogen_Bond_Acceptor_Count is 0,Rotatable_Bond_Count is 0,Exact_Mass is 64.0079779,Monoisotopic_Mass is 64.0079779,Topological_Polar_Surface_Area is 0,""Unit"":""Å²"",Heavy_Atom_Count is 3,Formal_Charge is 0,Complexity is 2.8,Isotope_Atom_Count is 0,Defined_Atom_Stereocenter_Count is 0,Undefined_Atom_Stereocenter_Count is 0,Defined_Bond_Stereocenter_Count is 0,Undefined_Bond_Stereocenter_Count is 0,Covalently_Bonded_Unit_Count is 1,Compound_Is_Canonicalized is Yes,Physical_Description is Ethylchlorideappearsasaclearcolorlessgaswithapungentodor.Flashpoint-58°F.Boilingpoint54°F.Lessdensethanwaterandinsolubleinwater.Vaporsareheavierthanair.Underprolongedexposuretofireorheatthecontainersmayruptureviolentlyandrocket."",""Markup"":[{""Start"":0,""Length"":14,""URL"":""https://pubchem.ncbi.nlm.nih.gov/compound/Ethyl%20chloride"",""Type"":""PubChemInternalLink"",""Extra"":""CID-6337"",Color/Form is COLORLESSLIQUID,Odor is Etherealodor,Boiling_Point is 54.1°Fat760mmHg(NTP,1992),Melting_Point is -218°F(NTP,1992),Flash_Point is -58°F(NTP,1992),Solubility is 0.574g/100mLat68°F(NTP,1992),Density is 0.906at53.96°F(USCG,1999)-Lessdensethanwater;willfloat"",""Markup"":[{""Start"":49,""Length"":5,""URL"":""https://pubchem.ncbi.nlm.nih.gov/compound/water"",""Type"":""PubChemInternalLink"",""Extra"":""CID-962"
"1,2,2-trifluoroethoxybenzene",c1ccc(cc1)O[C@@H](C(F)F)F,-1.29,-3.043,"cid is 16270,compound_name is Propylcyclopentane,cid_paras is 16270,Molecular_Weight is 112.21,XLogP3 is 4,Hydrogen_Bond_Donor_Count is 0,Hydrogen_Bond_Acceptor_Count is 0,Rotatable_Bond_Count is 2,Exact_Mass is 112.125200510,Monoisotopic_Mass is 112.125200510,Topological_Polar_Surface_Area is 0,""Unit"":""Å²"",Heavy_Atom_Count is 8,Formal_Charge is 0,Complexity is 51.1,Isotope_Atom_Count is 0,Defined_Atom_Stereocenter_Count is 0,Undefined_Atom_Stereocenter_Count is 0,Defined_Bond_Stereocenter_Count is 0,Undefined_Bond_Stereocenter_Count is 0,Covalently_Bonded_Unit_Count is 1,Compound_Is_Canonicalized is Yes"
"1,2-dimethoxyethane",COCCOC,-4.84,-3.103,"cid is 7950,compound_name is 1,3,5-Trichlorobenzene,cid_paras is 7950,Molecular_Weight is 181.4,XLogP3 is 4.2,Hydrogen_Bond_Donor_Count is 0,Hydrogen_Bond_Acceptor_Count is 0,Rotatable_Bond_Count is 0,Exact_Mass is 179.930033,Monoisotopic_Mass is 179.930033,Topological_Polar_Surface_Area is 0,""Unit"":""Å²"",Heavy_Atom_Count is 9,Formal_Charge is 0,Complexity is 63.3,Isotope_Atom_Count is 0,Defined_Atom_Stereocenter_Count is 0,Undefined_Atom_Stereocenter_Count is 0,Defined_Bond_Stereocenter_Count is 0,Undefined_Bond_Stereocenter_Count is 0,Covalently_Bonded_Unit_Count is 1,Compound_Is_Canonicalized is Yes,Physical_Description is 1,3,5-trichlorobenzeneappearsaswhitetooff-whitecrystals.(NTP,1992)"",""Markup"":[{""Start"":0,""Length"":22,""URL"":""https://pubchem.ncbi.nlm.nih.gov/compound/1%2C3%2C5-trichlorobenzene"",""Type"":""PubChemInternalLink"",""Extra"":""CID-7950,Color/Form is Needles,Boiling_Point is 407.1°Fat760mmHg(NTP,1992),Melting_Point is 145to147°F(NTP,1992),Flash_Point is 224.6°F(NTP,1992),Solubility is lessthan0.1mg/mLat67.1°F(NTP,1992),Density is 1.456g/cumat20°C(liquid)"
sec-butylbenzene,CC[C@H](C)c1ccccc1,-0.45,-0.22,"cid is 7175,compound_name is Propylparaben,cid_paras is 7175,Molecular_Weight is 180.20,XLogP3 is 3,Hydrogen_Bond_Donor_Count is 1,Hydrogen_Bond_Acceptor_Count is 3,Rotatable_Bond_Count is 4,Exact_Mass is 180.078644241,Monoisotopic_Mass is 180.078644241,Topological_Polar_Surface_Area is 46.5,""Unit"":""Å²"",Heavy_Atom_Count is 13,Formal_Charge is 0,Complexity is 160,Isotope_Atom_Count is 0,Defined_Atom_Stereocenter_Count is 0,Undefined_Atom_Stereocenter_Count is 0,Defined_Bond_Stereocenter_Count is 0,Undefined_Bond_Stereocenter_Count is 0,Covalently_Bonded_Unit_Count is 1,Compound_Is_Canonicalized is Yes,Physical_Description is Propyl-4-hydroxybenzoateappearsascolorlesscrystalsorwhitepowderorchunkywhitesolid.Meltingpoint95-98°C.Odorlessorfaintaromaticodor.Lowtoxicity,Tasteless(numbsthetongue).pH:6.5-7.0(slightlyacidic)insolution."",""Markup"":[{""Start"":0,""Length"":24,""URL"":""https://pubchem.ncbi.nlm.nih.gov/compound/Propyl-4-hydroxybenzoate"",""Type"":""PubChemInternalLink"",""Extra"":""CID-66683808,Color/Form is Whitecrystals,Odor is Odorlessorhasfaintodor,Boiling_Point is 271°Fat1mmHg(NTP,1992),Melting_Point is 203to208°F(NTP,1992),Solubility is lessthan1mg/mLat54°F(NTP,1992),Density is 1.28at77°F(NTP,1992)-Denserthanwater;willsink"",""Markup"":[{""Start"":40,""Length"":5,""URL"":""https://pubchem.ncbi.nlm.nih.gov/compound/water"",""Type"":""PubChemInternalLink"",""Extra"":""CID-962"
3-phenylpropan-1-ol,c1ccc(cc1)CCCO,-6.92,-5.771,"cid is 7933,compound_name is 3-Chlorophenol,cid_paras is 7933,Molecular_Weight is 128.55,XLogP3 is 2.5,Hydrogen_Bond_Donor_Count is 1,Hydrogen_Bond_Acceptor_Count is 1,Rotatable_Bond_Count is 0,Exact_Mass is 128.0028925,Monoisotopic_Mass is 128.0028925,Topological_Polar_Surface_Area is 20.2,""Unit"":""Å²"",Heavy_Atom_Count is 8,Formal_Charge is 0,Complexity is 74.9,Isotope_Atom_Count is 0,Defined_Atom_Stereocenter_Count is 0,Undefined_Atom_Stereocenter_Count is 0,Defined_Bond_Stereocenter_Count is 0,Undefined_Bond_Stereocenter_Count is 0,Covalently_Bonded_Unit_Count is 1,Compound_Is_Canonicalized is Yes,Physical_Description is M-chlorophenolappearsaswhitecrystalswithanodorofphenol.Sinksinandslowlydissolvesinwater.(NTP,1992)"",""Markup"":[{""Start"":0,""Length"":14,""URL"":""https://pubchem.ncbi.nlm.nih.gov/compound/M-chlorophenol"",""Type"":""PubChemInternalLink"",""Extra"":""CID-7933"",Color/Form is Needles,Odor is Odorsimilartophenol,Boiling_Point is 417°Fat760mmHg(NTP,1992),Melting_Point is 91°F(NTP,1992),Flash_Point is greaterthan233.6°F(NTP,1992),Solubility is 10to50mg/mLat59°F(NTP,1992),Density is 1.245at113°F(NTP,1992)-Denserthanwater;willsink"",""Markup"":[{""Start"":42,""Length"":5,""URL"":""https://pubchem.ncbi.nlm.nih.gov/compound/water"",""Type"":""PubChemInternalLink"",""Extra"":""CID-962"
"2-[(1R)-1-methylpropyl]-4,6-dinitro-phenolate",CC[C@@H](C)c1cc(cc(c1O)[N+](=O)[O-])[N+](=O)[O-],-6.23,-5.378,"cid is 31260,compound_name is Isoamyl alcohol,cid_paras is 31260,Molecular_Weight is 88.15,XLogP3 is 1.2,Hydrogen_Bond_Donor_Count is 1,Hydrogen_Bond_Acceptor_Count is 1,Rotatable_Bond_Count is 2,Exact_Mass is 88.088815002,Monoisotopic_Mass is 88.088815002,Topological_Polar_Surface_Area is 20.2,""Unit"":""Å²"",Heavy_Atom_Count is 6,Formal_Charge is 0,Complexity is 25.1,Isotope_Atom_Count is 0,Defined_Atom_Stereocenter_Count is 0,Undefined_Atom_Stereocenter_Count is 0,Defined_Bond_Stereocenter_Count is 0,Undefined_Bond_Stereocenter_Count is 0,Covalently_Bonded_Unit_Count is 1,Compound_Is_Canonicalized is Yes,Physical_Description is Isoamylalcoholisacolorlessliquidwithamild,chokingalcoholodor.Lessdensethanwater,solubleinwater.Hencefloatsonwater.Producesanirritatingvapor.(USCG,1999)"",""Markup"":[{""Start"":0,""Length"":15,""URL"":""https://pubchem.ncbi.nlm.nih.gov/compound/Isoamyl%20alcohol"",""Type"":""PubChemInternalLink"",""Extra"":""CID-31260"",Color/Form is OILY,CLEARLIQ,Odor is CHARACTERISTIC,DISAGREEABLEODOR,Boiling_Point is 270°Fat760mmHg(USCG,1999),Melting_Point is -179°F(NIOSH,2024),Flash_Point is 114°F(USCG,1999),Solubility is 2%at57°F(NIOSH,2024),Density is 0.81at68°F(USCG,1999)-Lessdensethanwater;willfloat"",""Markup"":[{""Start"":45,""Length"":5,""URL"":""https://pubchem.ncbi.nlm.nih.gov/compound/water"",""Type"":""PubChemInternalLink"",""Extra"":""CID-962"
methyl 4-methoxybenzoate,COc1ccc(cc1)C(=O)OC,-5.33,-6.462,"cid is 8060,compound_name is Amylamine,cid_paras is 8060,Molecular_Weight is 87.16,XLogP3 is 1.5,Hydrogen_Bond_Donor_Count is 1,Hydrogen_Bond_Acceptor_Count is 1,Rotatable_Bond_Count is 3,Exact_Mass is 87.104799419,Monoisotopic_Mass is 87.104799419,Topological_Polar_Surface_Area is 26,""Unit"":""Å²"",Heavy_Atom_Count is 6,Formal_Charge is 0,Complexity is 19.9,Isotope_Atom_Count is 0,Defined_Atom_Stereocenter_Count is 0,Undefined_Atom_Stereocenter_Count is 0,Defined_Bond_Stereocenter_Count is 0,Undefined_Bond_Stereocenter_Count is 0,Covalently_Bonded_Unit_Count is 1,Compound_Is_Canonicalized is Yes,Physical_Description is N-amylamineappearsasaclearcolorlessliquidwithanammonia-likeodor.Irritatestheeyesandrespiratorysystem.Vaporsareheavierthanair.Producestoxicoxidesofnitrogenduringcombustion.Usedasacorrosioninhibitor,solvent,flotationagentandinthemanufactureofotherchemicals."",""Markup"":[{""Start"":0,""Length"":11,""URL"":""https://pubchem.ncbi.nlm.nih.gov/compound/N-amylamine"",""Type"":""PubChemInternalLink"",""Extra"":""CID-8060"",Boiling_Point is 219.9°Fat760mmHg(NTP,1992),Melting_Point is -67to-58°F(NTP,1992),Flash_Point is 45°F(NTP,1992),Solubility is Verysoluble(NTP,1992),Density is 0.7547(NTP,1992)-Lessdensethanwater;willfloat"",""Markup"":[{""Start"":37,""Length"":5,""URL"":""https://pubchem.ncbi.nlm.nih.gov/compound/water"",""Type"":""PubChemInternalLink"",""Extra"":""CID-962"
"N-(3,4-dichlorophenyl)propanimidic acid",CCC(=O)Nc1ccc(c(c1)Cl)Cl,-7.78,-9.409,"cid is 22188,compound_name is Terbacil,cid_paras is 22188,Molecular_Weight is 216.66,XLogP3 is 1.9,Hydrogen_Bond_Donor_Count is 1,Hydrogen_Bond_Acceptor_Count is 2,Rotatable_Bond_Count is 1,Exact_Mass is 216.0665554,Monoisotopic_Mass is 216.0665554,Topological_Polar_Surface_Area is 49.4,""Unit"":""Å²"",Heavy_Atom_Count is 14,Formal_Charge is 0,Complexity is 328,Isotope_Atom_Count is 0,Defined_Atom_Stereocenter_Count is 0,Undefined_Atom_Stereocenter_Count is 0,Defined_Bond_Stereocenter_Count is 0,Undefined_Bond_Stereocenter_Count is 0,Covalently_Bonded_Unit_Count is 1,Compound_Is_Canonicalized is Yes,Physical_Description is Terbacilappearsascolorlesscrystals.Noncorrosive.Usedasanherbicide."",""Markup"":[{""Start"":0,""Length"":8,""URL"":""https://pubchem.ncbi.nlm.nih.gov/compound/Terbacil"",""Type"":""PubChemInternalLink"",""Extra"":""CID-22188,Color/Form is Whitecrystallinesolid,Odor is Odorless,Boiling_Point is Sublimationbeginsbelowthemeltingpoint,Melting_Point is 175-177°C,Solubility is Solubilities(g/kg,25°C):dimethylformamide337g/kg;cyclohexanone220;methylisobutylketone121;butylacetate88g/kg;xylene65"",""Markup"":[{""Start"":28,""Length"":17,""URL"":""https://pubchem.ncbi.nlm.nih.gov/compound/dimethylformamide"",""Type"":""PubChemInternalLink"",""Extra"":""CID-6228"",Density is 1.34g/cucmat25°C"
naproxen,C[C@@H](c1ccc2cc(ccc2c1)OC)C(=O)O,-10.21,-12.199,"cid is 19041,compound_name is 2,2,5-Trimethylhexane,cid_paras is 19041,Molecular_Weight is 128.25,XLogP3 is 4.4,Hydrogen_Bond_Donor_Count is 0,Hydrogen_Bond_Acceptor_Count is 0,Rotatable_Bond_Count is 3,Exact_Mass is 128.156500638,Monoisotopic_Mass is 128.156500638,Topological_Polar_Surface_Area is 0,""Unit"":""Å²"",Heavy_Atom_Count is 9,Formal_Charge is 0,Complexity is 64.6,Isotope_Atom_Count is 0,Defined_Atom_Stereocenter_Count is 0,Undefined_Atom_Stereocenter_Count is 0,Defined_Bond_Stereocenter_Count is 0,Undefined_Bond_Stereocenter_Count is 0,Covalently_Bonded_Unit_Count is 1,Compound_Is_Canonicalized is Yes,Physical_Description is Colorlessliquid.Pungent,acridodor."
octafluorocyclobutane,C1(C(C(C1(F)F)(F)F)(F)F)(F)F,3.43,3.077,"cid is 8133,compound_name is 2-Butoxyethanol,cid_paras is 8133,Molecular_Weight is 118.17,XLogP3 is 0.8,Hydrogen_Bond_Donor_Count is 1,Hydrogen_Bond_Acceptor_Count is 2,Rotatable_Bond_Count is 5,Exact_Mass is 118.099379685,Monoisotopic_Mass is 118.099379685,Topological_Polar_Surface_Area is 29.5,""Unit"":""Å²"",Heavy_Atom_Count is 8,Formal_Charge is 0,Complexity is 37.5,Isotope_Atom_Count is 0,Defined_Atom_Stereocenter_Count is 0,Undefined_Atom_Stereocenter_Count is 0,Defined_Bond_Stereocenter_Count is 0,Undefined_Bond_Stereocenter_Count is 0,Covalently_Bonded_Unit_Count is 1,Compound_Is_Canonicalized is Yes,Physical_Description is Ethyleneglycolmonobutyletherappearsasacolorlessliquidwithamild,pleasantodor.Lessdensethanwater.Flashpoint160°F.Irritatesskinandeyesandmaybetoxicbyingestion.Usedasasolventandtomakepaintsandvarnish."",""Markup"":[{""Start"":0,""Length"":31,""URL"":""https://pubchem.ncbi.nlm.nih.gov/compound/Ethylene%20glycol%20monobutyl%20ether"",""Type"":""PubChemInternalLink"",""Extra"":""CID-8133"",Color/Form is Colorlessliquid,Odor is Mild,ether-likeodor,Boiling_Point is 340°Fat743mmHg(NTP,1992),Melting_Point is -94°F(NTP,1992),Flash_Point is 141°F(NTP,1992),Solubility is greaterthanorequalto100mg/mLat72°F(NTP,1992),Density is 0.902at68°F(USCG,1999)-Lessdensethanwater;willfloat"",""Markup"":[{""Start"":46,""Length"":5,""URL"":""https://pubchem.ncbi.nlm.nih.gov/compound/water"",""Type"":""PubChemInternalLink"",""Extra"":""CID-962"
isopentyl acetate,CC(C)CCOC(=O)C,-2.21,-3.067,"cid is 10407447,compound_name is (1R,2S,3R,6S,7R,8S,9S,11R)-3,4,5,6,13,13-hexachloro-10-oxapentacyclo[6.3.1.13,6.02,7.09,11]tridec-4-ene,cid_paras is 10407447,Molecular_Weight is 380.9,XLogP3 is 3.7,Hydrogen_Bond_Donor_Count is 0,Hydrogen_Bond_Acceptor_Count is 1,Rotatable_Bond_Count is 0,Exact_Mass is 379.867681,Monoisotopic_Mass is 377.870631,Topological_Polar_Surface_Area is 12.5,""Unit"":""Å²"",Heavy_Atom_Count is 19,Formal_Charge is 0,Complexity is 516,Isotope_Atom_Count is 0,Defined_Atom_Stereocenter_Count is 8,Undefined_Atom_Stereocenter_Count is 0,Defined_Bond_Stereocenter_Count is 0,Undefined_Bond_Stereocenter_Count is 0,Covalently_Bonded_Unit_Count is 1,Compound_Is_Canonicalized is Yes"
1-chlorohexane,CCCCCCCl,0.0,1.261,"cid is 2331,compound_name is Benzamide,cid_paras is 2331,Molecular_Weight is 121.14,XLogP3 is 0.6,Hydrogen_Bond_Donor_Count is 1,Hydrogen_Bond_Acceptor_Count is 1,Rotatable_Bond_Count is 1,Exact_Mass is 121.052763847,Monoisotopic_Mass is 121.052763847,Topological_Polar_Surface_Area is 43.1,""Unit"":""Å²"",Heavy_Atom_Count is 9,Formal_Charge is 0,Complexity is 106,Isotope_Atom_Count is 0,Defined_Atom_Stereocenter_Count is 0,Undefined_Atom_Stereocenter_Count is 0,Defined_Bond_Stereocenter_Count is 0,Undefined_Bond_Stereocenter_Count is 0,Covalently_Bonded_Unit_Count is 1,Compound_Is_Canonicalized is Yes,Physical_Description is Benzamideisawhitepowder.(NTP,1992)"",""Markup"":[{""Start"":0,""Length"":9,""URL"":""https://pubchem.ncbi.nlm.nih.gov/compound/Benzamide"",""Type"":""PubChemInternalLink"",""Extra"":""CID-2331,Color/Form is Colorlesscrystals,Boiling_Point is 554°Fat760mmHg(NTP,1992),Melting_Point is 270to271°F(NTP,1992),Solubility is >18.2[ug/mL](ThemeanoftheresultsatpH7.4),Density is 1.0792at266°F(NTP,1992)-Denserthanwater;willsink"",""Markup"":[{""Start"":43,""Length"":5,""URL"":""https://pubchem.ncbi.nlm.nih.gov/compound/water"",""Type"":""PubChemInternalLink"",""Extra"":""CID-962"
4-methylpentan-2-one,CC(C)CC(=O)C,-3.05,-3.116,"cid is 398,compound_name is 2-Nitropropane,cid_paras is 398,Molecular_Weight is 89.09,XLogP3 is 0.8,Hydrogen_Bond_Donor_Count is 0,Hydrogen_Bond_Acceptor_Count is 2,Rotatable_Bond_Count is 0,Exact_Mass is 89.047678466,Monoisotopic_Mass is 89.047678466,Topological_Polar_Surface_Area is 45.8,""Unit"":""Å²"",Heavy_Atom_Count is 6,Formal_Charge is 0,Complexity is 54.3,Isotope_Atom_Count is 0,Defined_Atom_Stereocenter_Count is 0,Undefined_Atom_Stereocenter_Count is 0,Defined_Bond_Stereocenter_Count is 0,Undefined_Bond_Stereocenter_Count is 0,Covalently_Bonded_Unit_Count is 1,Compound_Is_Canonicalized is Yes,Physical_Description is 2-nitropropaneappearsascolorlessliquidwithamildfruityodor.Mayfloatonorsinkinwater.(USCG,1999)"",""Markup"":[{""Start"":0,""Length"":14,""URL"":""https://pubchem.ncbi.nlm.nih.gov/compound/2-nitropropane"",""Type"":""PubChemInternalLink"",""Extra"":""CID-398"",Color/Form is Colorlessliquid,Odor is Pleasantfruityodor.,Boiling_Point is 248.5°Fat760mmHg(NTP,1992),Melting_Point is -135°F(NTP,1992),Flash_Point is 75°F(NTP,1992),Solubility is greaterthanorequalto0.1mg/mLat66°F(NTP,1992),Density is 0.99at68°F(USCG,1999)-Lessdensethanwater;willfloat"",""Markup"":[{""Start"":45,""Length"":5,""URL"":""https://pubchem.ncbi.nlm.nih.gov/compound/water"",""Type"":""PubChemInternalLink"",""Extra"":""CID-962"
hexanal,CCCCCC=O,-2.81,-2.86,"cid is 753,compound_name is Glycerin,cid_paras is 753,Molecular_Weight is 92.09,XLogP3 is -1.8,Hydrogen_Bond_Donor_Count is 3,Hydrogen_Bond_Acceptor_Count is 3,Rotatable_Bond_Count is 2,Exact_Mass is 92.047344113,Monoisotopic_Mass is 92.047344113,Topological_Polar_Surface_Area is 60.7,""Unit"":""Å²"",Heavy_Atom_Count is 6,Formal_Charge is 0,Complexity is 25.2,Isotope_Atom_Count is 0,Defined_Atom_Stereocenter_Count is 0,Undefined_Atom_Stereocenter_Count is 0,Defined_Bond_Stereocenter_Count is 0,Undefined_Bond_Stereocenter_Count is 0,Covalently_Bonded_Unit_Count is 1,Compound_Is_Canonicalized is Yes,Physical_Description is Glycerineappearsasacolorlesstobrowncoloredliquid.Combustiblebutmayrequiresomeefforttoignite."",""Markup"":[{""Start"":0,""Length"":9,""URL"":""https://pubchem.ncbi.nlm.nih.gov/compound/Glycerine"",""Type"":""PubChemInternalLink"",""Extra"":""CID-753,Color/Form is Syrupy,rhombicplates,Odor is MILDODOR,Boiling_Point is 554°Fat760mmHg(decomposes)(NTP,1992),Melting_Point is 64°F(NTP,1992),Flash_Point is 320°F(NTP,1992),Solubility is greaterthanorequalto100mg/mLat64°F(NTP,1992),Density is 1.261at68°F(USCG,1999)-Denserthanwater;willsink"",""Markup"":[{""Start"":42,""Length"":5,""URL"":""https://pubchem.ncbi.nlm.nih.gov/compound/water"",""Type"":""PubChemInternalLink"",""Extra"":""CID-962"
3-chloroaniline,c1cc(cc(c1)Cl)N,-5.82,-5.138,"cid is 33643,compound_name is 1-Iodopropane,cid_paras is 33643,Molecular_Weight is 169.99,XLogP3 is 2.6,Hydrogen_Bond_Donor_Count is 0,Hydrogen_Bond_Acceptor_Count is 0,Rotatable_Bond_Count is 1,Exact_Mass is 169.95925,Monoisotopic_Mass is 169.95925,Topological_Polar_Surface_Area is 0,""Unit"":""Å²"",Heavy_Atom_Count is 4,Formal_Charge is 0,Complexity is 7.2,Isotope_Atom_Count is 0,Defined_Atom_Stereocenter_Count is 0,Undefined_Atom_Stereocenter_Count is 0,Defined_Bond_Stereocenter_Count is 0,Undefined_Bond_Stereocenter_Count is 0,Covalently_Bonded_Unit_Count is 1,Compound_Is_Canonicalized is Yes,Physical_Description is Iodopropanesappearsasacolorlessliquidthatdiscolorsinair.Denserthanwater.Thevaporsareheavierthanair.Maybemildlytoxicbyinhalation.Usedasasolventandtomakepharmaceuticals."",""Markup"":[{""Start"":78,""Length"":5,""URL"":""https://pubchem.ncbi.nlm.nih.gov/compound/water"",""Type"":""PubChemInternalLink"",""Extra"":""CID-962"
morpholine,C1COCCN1,-7.17,-6.116,"cid is 8018,compound_name is 2-Methoxyethylamine,cid_paras is 8018,Molecular_Weight is 75.11,XLogP3 is -0.9,Hydrogen_Bond_Donor_Count is 1,Hydrogen_Bond_Acceptor_Count is 2,Rotatable_Bond_Count is 2,Exact_Mass is 75.068413911,Monoisotopic_Mass is 75.068413911,Topological_Polar_Surface_Area is 35.2,""Unit"":""Å²"",Heavy_Atom_Count is 5,Formal_Charge is 0,Complexity is 16.4,Isotope_Atom_Count is 0,Defined_Atom_Stereocenter_Count is 0,Undefined_Atom_Stereocenter_Count is 0,Defined_Bond_Stereocenter_Count is 0,Undefined_Bond_Stereocenter_Count is 0,Covalently_Bonded_Unit_Count is 1,Compound_Is_Canonicalized is Yes,Physical_Description is Clearcolorlessliquid;[Sigma-AldrichMSDS]"