iupac,smiles,expt,calc,Description
methyl 4-nitrobenzoate,COC(=O)c1ccc(cc1)[N+](=O)[O-],-6.88,-6.588,"cid is 8005,compound_name is N-butyl Chloride,cid_paras is 8005,Molecular_Weight is 92.57,XLogP3 is 2.6,Hydrogen_Bond_Donor_Count is 0,Hydrogen_Bond_Acceptor_Count is 0,Rotatable_Bond_Count is 2,Exact_Mass is 92.0392780,Monoisotopic_Mass is 92.0392780,Topological_Polar_Surface_Area is 0,""Unit"":""Å²"",Heavy_Atom_Count is 5,Formal_Charge is 0,Complexity is 13.1,Isotope_Atom_Count is 0,Defined_Atom_Stereocenter_Count is 0,Undefined_Atom_Stereocenter_Count is 0,Defined_Bond_Stereocenter_Count is 0,Undefined_Bond_Stereocenter_Count is 0,Covalently_Bonded_Unit_Count is 1,Compound_Is_Canonicalized is Yes,Physical_Description is Butylchlorideappearsasawaterwhiteliquidwithasharpodor.Flashpoint20°F.Boilingpoint77-78°C(173°F).Density7.5lb/gal.Slightlysolubleinwater.Vaporsareheavierthanair.Usedinthemanufactureofavarietyoforganicchemicals."",""Markup"":[{""Start"":0,""Length"":14,""URL"":""https://pubchem.ncbi.nlm.nih.gov/compound/Butyl%20chloride"",""Type"":""PubChemInternalLink"",""Extra"":""CID-8005"",Color/Form is COLORLESSLIQ,Odor is Unpleasant,Boiling_Point is 173.3°Fat760mmHg(NTP,1992),Melting_Point is -189.6°F(NTP,1992),Flash_Point is 20°F(NTP,1992),Solubility is lessthan1mg/mLat59°F(NTP,1992),Density is 0.8862at68°F(USCG,1999)-Lessdensethanwater;willfloat"",""Markup"":[{""Start"":47,""Length"":5,""URL"":""https://pubchem.ncbi.nlm.nih.gov/compound/water"",""Type"":""PubChemInternalLink"",""Extra"":""CID-962"
1-(3-pyridyl)ethanone,CC(=O)c1cccnc1,-8.26,-7.844,"cid is 7567598,compound_name is (2S,5S)-2,5-dimethyloxolane,cid_paras is 7567598,Molecular_Weight is 100.16,XLogP3 is 1.2,Hydrogen_Bond_Donor_Count is 0,Hydrogen_Bond_Acceptor_Count is 1,Rotatable_Bond_Count is 0,Exact_Mass is 100.088815002,Monoisotopic_Mass is 100.088815002,Topological_Polar_Surface_Area is 9.2,""Unit"":""Å²"",Heavy_Atom_Count is 7,Formal_Charge is 0,Complexity is 53.2,Isotope_Atom_Count is 0,Defined_Atom_Stereocenter_Count is 2,Undefined_Atom_Stereocenter_Count is 0,Defined_Bond_Stereocenter_Count is 0,Undefined_Bond_Stereocenter_Count is 0,Covalently_Bonded_Unit_Count is 1,Compound_Is_Canonicalized is Yes"
prop-1-yne,CC#C,-0.48,0.065,"cid is 10326,compound_name is Indan,cid_paras is 10326,Molecular_Weight is 118.18,XLogP3 is 3.2,Hydrogen_Bond_Donor_Count is 0,Hydrogen_Bond_Acceptor_Count is 0,Rotatable_Bond_Count is 0,Exact_Mass is 118.078250319,Monoisotopic_Mass is 118.078250319,Topological_Polar_Surface_Area is 0,""Unit"":""Å²"",Heavy_Atom_Count is 9,Formal_Charge is 0,Complexity is 84.2,Isotope_Atom_Count is 0,Defined_Atom_Stereocenter_Count is 0,Undefined_Atom_Stereocenter_Count is 0,Defined_Bond_Stereocenter_Count is 0,Undefined_Bond_Stereocenter_Count is 0,Covalently_Bonded_Unit_Count is 1,Compound_Is_Canonicalized is Yes,Physical_Description is Liquid;[MerckIndex]Clearlightyellowliquid;[Sigma-AldrichMSDS]"
nonanal,CCCCCCCCC=O,-2.07,-2.336,"cid is 1140,compound_name is Toluene,cid_paras is 1140,Molecular_Weight is 92.14,XLogP3 is 2.7,Hydrogen_Bond_Donor_Count is 0,Hydrogen_Bond_Acceptor_Count is 0,Rotatable_Bond_Count is 0,Exact_Mass is 92.062600255,Monoisotopic_Mass is 92.062600255,Topological_Polar_Surface_Area is 0,""Unit"":""Å²"",Heavy_Atom_Count is 7,Formal_Charge is 0,Complexity is 42,Isotope_Atom_Count is 0,Defined_Atom_Stereocenter_Count is 0,Undefined_Atom_Stereocenter_Count is 0,Defined_Bond_Stereocenter_Count is 0,Undefined_Bond_Stereocenter_Count is 0,Covalently_Bonded_Unit_Count is 1,Compound_Is_Canonicalized is Yes,Physical_Description is Tolueneappearsasaclearcolorlessliquidwithacharacteristicaromaticodor.Flashpoint40°F.Lessdensethanwater(7.2lb/gal)andinsolubleinwater.Hencefloatsonwater.Vaporsheavierthanair.Maybetoxicbyinhalation,ingestionorskincontact.Usedinaviationandautomotivefuels,asasolvent,andtomakeotherchemicals."",""Markup"":[{""Start"":0,""Length"":7,""URL"":""https://pubchem.ncbi.nlm.nih.gov/compound/Toluene"",""Type"":""PubChemInternalLink"",""Extra"":""CID-1140"",Color/Form is Colorlessliquid,Odor is Sweet,pungent,benzene-likeodor"",""Markup"":[{""Start"":16,""Length"":7,""URL"":""https://pubchem.ncbi.nlm.nih.gov/compound/benzene"",""Type"":""PubChemInternalLink"",""Extra"":""CID-241,Boiling_Point is 231.1°Fat760mmHg(NTP,1992),Melting_Point is -139°F(NTP,1992),Flash_Point is 40°F(NTP,1992),Solubility is lessthan1mg/mLat64°F(NTP,1992),Density is 0.867at68°F(USCG,1999)-Lessdensethanwater;willfloat"",""Markup"":[{""Start"":46,""Length"":5,""URL"":""https://pubchem.ncbi.nlm.nih.gov/compound/water"",""Type"":""PubChemInternalLink"",""Extra"":""CID-962"
propionic acid,CCC(=O)O,-6.46,-9.088,"cid is 10957,compound_name is Isobutyl formate,cid_paras is 10957,Molecular_Weight is 102.13,XLogP3 is 1.5,Hydrogen_Bond_Donor_Count is 0,Hydrogen_Bond_Acceptor_Count is 2,Rotatable_Bond_Count is 3,Exact_Mass is 102.068079557,Monoisotopic_Mass is 102.068079557,Topological_Polar_Surface_Area is 26.3,""Unit"":""Å²"",Heavy_Atom_Count is 7,Formal_Charge is 0,Complexity is 50,Isotope_Atom_Count is 0,Defined_Atom_Stereocenter_Count is 0,Undefined_Atom_Stereocenter_Count is 0,Defined_Bond_Stereocenter_Count is 0,Undefined_Bond_Stereocenter_Count is 0,Covalently_Bonded_Unit_Count is 1,Compound_Is_Canonicalized is Yes,Physical_Description is Isobutylformateappearsasacolorlessliquid.Lessdensethanwater.Vaporsheavierthanair.Vaporsmaybenarcoticandirritatinginhighconcentrations.Usedasasolventandtomakeperfumes."",""Markup"":[{""Start"":0,""Length"":16,""URL"":""https://pubchem.ncbi.nlm.nih.gov/compound/Isobutyl%20formate"",""Type"":""PubChemInternalLink"",""Extra"":""CID-10957"",Boiling_Point is 97.00to99.00°C.@760.00mmHg,Melting_Point is -95°C,Flash_Point is lessthan70°F(NFPA,2010),Solubility is 10.2mg/mLat25°C,Density is 0.876-0.886"
chloroform,C(Cl)(Cl)Cl,-1.08,0.285,"cid is 8434,compound_name is Ethylparaben,cid_paras is 8434,Molecular_Weight is 166.17,XLogP3 is 2.5,Hydrogen_Bond_Donor_Count is 1,Hydrogen_Bond_Acceptor_Count is 3,Rotatable_Bond_Count is 3,Exact_Mass is 166.062994177,Monoisotopic_Mass is 166.062994177,Topological_Polar_Surface_Area is 46.5,""Unit"":""Å²"",Heavy_Atom_Count is 12,Formal_Charge is 0,Complexity is 148,Isotope_Atom_Count is 0,Defined_Atom_Stereocenter_Count is 0,Undefined_Atom_Stereocenter_Count is 0,Defined_Bond_Stereocenter_Count is 0,Undefined_Bond_Stereocenter_Count is 0,Covalently_Bonded_Unit_Count is 1,Compound_Is_Canonicalized is Yes,Physical_Description is Almostodourless,small,colourlesscrystalsorawhite,crystallinepowder,Color/Form is Small,colorlesscrystalsorpowderatroomtemperature,Odor is Odorless,Boiling_Point is 297-298°C(decomposition),Melting_Point is ofp-hydroxybenzoicacidisolatedbyacidificationandnotrecrystallised:213°Cto217°C,aftervacuumdryinginasulphuricaciddesiccator"",""Markup"":[{""Start"":4,""Length"":19,""URL"":""https://pubchem.ncbi.nlm.nih.gov/compound/hydroxybenzoic%20acid"",""Type"":""PubChemInternalLink"",""Extra"":""multiple-CIDs"",Solubility is Inwater,8.85X10+2mg/Lat25°C"",""Markup"":[{""Start"":3,""Length"":5,""URL"":""https://pubchem.ncbi.nlm.nih.gov/compound/water"",""Type"":""PubChemInternalLink"",""Extra"":""CID-962"
"1,2,3-trimethylbenzene",Cc1cccc(c1C)C,-1.21,-0.883,"cid is 12375,compound_name is 1,2-Diethoxyethane,cid_paras is 12375,Molecular_Weight is 118.17,XLogP3 is 0.7,Hydrogen_Bond_Donor_Count is 0,Hydrogen_Bond_Acceptor_Count is 2,Rotatable_Bond_Count is 5,Exact_Mass is 118.099379685,Monoisotopic_Mass is 118.099379685,Topological_Polar_Surface_Area is 18.5,""Unit"":""Å²"",Heavy_Atom_Count is 8,Formal_Charge is 0,Complexity is 31.5,Isotope_Atom_Count is 0,Defined_Atom_Stereocenter_Count is 0,Undefined_Atom_Stereocenter_Count is 0,Defined_Bond_Stereocenter_Count is 0,Undefined_Bond_Stereocenter_Count is 0,Covalently_Bonded_Unit_Count is 1,Compound_Is_Canonicalized is Yes,Physical_Description is Ethyleneglycoldiethyletherappearsasaclearcolorlessliquidwithafaintether-likeodor.Flashpoint95°F.Lessdensethanwaterandinsolubleinwater.Vaporsheavierthanair."",""Markup"":[{""Start"":0,""Length"":29,""URL"":""https://pubchem.ncbi.nlm.nih.gov/compound/Ethylene%20glycol%20diethyl%20ether"",""Type"":""PubChemInternalLink"",""Extra"":""CID-12375"",Color/Form is Colorlessliquid,Odor is Sweetishodor,Boiling_Point is 250.5°Fat760mmHg(NTP,1992),Melting_Point is -101°F(NTP,1992),Flash_Point is 95°F(NTP,1992),Solubility is greaterthanorequalto100mg/mLat66°F(NTP,1992),Density is 0.8484at68°F(USCG,1999)-Lessdensethanwater;willfloat"",""Markup"":[{""Start"":47,""Length"":5,""URL"":""https://pubchem.ncbi.nlm.nih.gov/compound/water"",""Type"":""PubChemInternalLink"",""Extra"":""CID-962"
methane,C,2.0,2.446,"cid is 12217,compound_name is Pentyl propionate,cid_paras is 12217,Molecular_Weight is 144.21,XLogP3 is 2.4,Hydrogen_Bond_Donor_Count is 0,Hydrogen_Bond_Acceptor_Count is 2,Rotatable_Bond_Count is 6,Exact_Mass is 144.115029749,Monoisotopic_Mass is 144.115029749,Topological_Polar_Surface_Area is 26.3,""Unit"":""Å²"",Heavy_Atom_Count is 10,Formal_Charge is 0,Complexity is 89.3,Isotope_Atom_Count is 0,Defined_Atom_Stereocenter_Count is 0,Undefined_Atom_Stereocenter_Count is 0,Defined_Bond_Stereocenter_Count is 0,Undefined_Bond_Stereocenter_Count is 0,Covalently_Bonded_Unit_Count is 1,Compound_Is_Canonicalized is Yes,Physical_Description is N-pentylpropionateisacolorlessliquidwithanapple-likeodor.Floatsonwater.(USCG,1999)"",""Markup"":[{""Start"":0,""Length"":19,""URL"":""https://pubchem.ncbi.nlm.nih.gov/compound/N-pentyl%20propionate"",""Type"":""PubChemInternalLink"",""Extra"":""CID-12217"",Boiling_Point is 167.00to169.00°C.@760.00mmHg,Melting_Point is -73.1°C,Flash_Point is 106°F(USCG,1999),Solubility is 0.81mg/mLat25°C,Density is 0.869to0.873at68°F(USCG,1999)"
benzyl chloride,c1ccc(cc1)CCl,-1.93,-1.742,"cid is 12580,compound_name is 4-Propylphenol,cid_paras is 12580,Molecular_Weight is 136.19,XLogP3 is 3.2,Hydrogen_Bond_Donor_Count is 1,Hydrogen_Bond_Acceptor_Count is 1,Rotatable_Bond_Count is 2,Exact_Mass is 136.088815002,Monoisotopic_Mass is 136.088815002,Topological_Polar_Surface_Area is 20.2,""Unit"":""Å²"",Heavy_Atom_Count is 10,Formal_Charge is 0,Complexity is 82.7,Isotope_Atom_Count is 0,Defined_Atom_Stereocenter_Count is 0,Undefined_Atom_Stereocenter_Count is 0,Defined_Bond_Stereocenter_Count is 0,Undefined_Bond_Stereocenter_Count is 0,Covalently_Bonded_Unit_Count is 1,Compound_Is_Canonicalized is Yes,Physical_Description is Yellowliquid;mp=20-22degC;[AlfaAesarMSDS],Boiling_Point is 232.00to233.00°C.@760.00mmHg,Melting_Point is 21-22°C,Solubility is 1.28mg/mLat25°C,Density is 0.980-0.986"
methylcyclohexane,CC1CCCCC1,1.7,1.679,"cid is 10553,compound_name is 2-Methyl-2-butene,cid_paras is 10553,Molecular_Weight is 70.13,XLogP3 is 2.3,Hydrogen_Bond_Donor_Count is 0,Hydrogen_Bond_Acceptor_Count is 0,Rotatable_Bond_Count is 0,Exact_Mass is 70.078250319,Monoisotopic_Mass is 70.078250319,Topological_Polar_Surface_Area is 0,""Unit"":""Å²"",Heavy_Atom_Count is 5,Formal_Charge is 0,Complexity is 38,Isotope_Atom_Count is 0,Defined_Atom_Stereocenter_Count is 0,Undefined_Atom_Stereocenter_Count is 0,Defined_Bond_Stereocenter_Count is 0,Undefined_Bond_Stereocenter_Count is 0,Covalently_Bonded_Unit_Count is 1,Compound_Is_Canonicalized is Yes,Physical_Description is 2-methyl-2-buteneappearsasaclearcolorlessliquidwithapetroleum-likeodor.Lessdensethanwaterandinsolubleinwater.Hencefloatsonwater.Vaporsheavierthanair."",""Markup"":[{""Start"":0,""Length"":17,""URL"":""https://pubchem.ncbi.nlm.nih.gov/compound/2-methyl-2-butene"",""Type"":""PubChemInternalLink"",""Extra"":""CID-10553"",Color/Form is LIQUIDATROOMTEMPERATURE,Odor is Disagreeableodor,Boiling_Point is 37.5-38.5°C,Melting_Point is -133.61°C,Flash_Point is lessthan20°F(NFPA,2010),Solubility is Practicallyinsolinwater;misciblewithalcohol,ether"",""Markup"":[{""Start"":21,""Length"":5,""URL"":""https://pubchem.ncbi.nlm.nih.gov/compound/water"",""Type"":""PubChemInternalLink"",""Extra"":""CID-962,Density is 0.66@15°C/4°C"
2-methylthiophene,Cc1cccs1,-1.38,-0.3,"cid is 11,compound_name is 1,2-Dichloroethane,cid_paras is 11,Molecular_Weight is 98.96,XLogP3 is 1.5,Hydrogen_Bond_Donor_Count is 0,Hydrogen_Bond_Acceptor_Count is 0,Rotatable_Bond_Count is 1,Exact_Mass is 97.9690055,Monoisotopic_Mass is 97.9690055,Topological_Polar_Surface_Area is 0,""Unit"":""Å²"",Heavy_Atom_Count is 4,Formal_Charge is 0,Complexity is 6,Isotope_Atom_Count is 0,Defined_Atom_Stereocenter_Count is 0,Undefined_Atom_Stereocenter_Count is 0,Defined_Bond_Stereocenter_Count is 0,Undefined_Bond_Stereocenter_Count is 0,Covalently_Bonded_Unit_Count is 1,Compound_Is_Canonicalized is Yes,Physical_Description is Ethylenedichlorideappearsasaclearcolorlessliquidwithachloroform-likeodor.Flashpoint56°F.Denserthanwaterandinsolubleinwater.Vaporsareheavierthanair.Density10.4lb/gal."",""Markup"":[{""Start"":0,""Length"":19,""URL"":""https://pubchem.ncbi.nlm.nih.gov/compound/Ethylene%20dichloride"",""Type"":""PubChemInternalLink"",""Extra"":""CID-11"",Color/Form is Heavyliquid,Odor is Pleasant,chloroform-like,Boiling_Point is 182.3°Fat760mmHg(NTP,1992),Melting_Point is -31.5°F(NTP,1992),Flash_Point is 56°F(NTP,1992),Solubility is 5to10mg/mLat66°F(NTP,1992),Density is 1.253at68°F(USCG,1999)-Denserthanwater;willsink"",""Markup"":[{""Start"":42,""Length"":5,""URL"":""https://pubchem.ncbi.nlm.nih.gov/compound/water"",""Type"":""PubChemInternalLink"",""Extra"":""CID-962"
pyridine,c1ccncc1,-4.69,-3.508,"cid is 11229,compound_name is 3,3-Dimethylpentane,cid_paras is 11229,Molecular_Weight is 100.20,XLogP3 is 3.6,Hydrogen_Bond_Donor_Count is 0,Hydrogen_Bond_Acceptor_Count is 0,Rotatable_Bond_Count is 2,Exact_Mass is 100.125200510,Monoisotopic_Mass is 100.125200510,Topological_Polar_Surface_Area is 0,""Unit"":""Å²"",Heavy_Atom_Count is 7,Formal_Charge is 0,Complexity is 38,Isotope_Atom_Count is 0,Defined_Atom_Stereocenter_Count is 0,Undefined_Atom_Stereocenter_Count is 0,Defined_Bond_Stereocenter_Count is 0,Undefined_Bond_Stereocenter_Count is 0,Covalently_Bonded_Unit_Count is 1,Compound_Is_Canonicalized is Yes,Physical_Description is Colorlessliquid;[AlfaAesarMSDS]"
1-chlorobutane,CCCCCl,-0.16,0.993,"cid is 11386,compound_name is 2,3-Dimethylnaphthalene,cid_paras is 11386,Molecular_Weight is 156.22,XLogP3 is 4.4,Hydrogen_Bond_Donor_Count is 0,Hydrogen_Bond_Acceptor_Count is 0,Rotatable_Bond_Count is 0,Exact_Mass is 156.093900383,Monoisotopic_Mass is 156.093900383,Topological_Polar_Surface_Area is 0,""Unit"":""Å²"",Heavy_Atom_Count is 12,Formal_Charge is 0,Complexity is 132,Isotope_Atom_Count is 0,Defined_Atom_Stereocenter_Count is 0,Undefined_Atom_Stereocenter_Count is 0,Defined_Bond_Stereocenter_Count is 0,Undefined_Bond_Stereocenter_Count is 0,Covalently_Bonded_Unit_Count is 1,Compound_Is_Canonicalized is Yes,Physical_Description is Whitesolid;[AlfaAesarMSDS]"
"2,5-dimethyltetrahydrofuran",C[C@H]1CC[C@@H](O1)C,-2.92,-1.787,"cid is 7937,compound_name is 2,6-Dimethylpyridine,cid_paras is 7937,Molecular_Weight is 107.15,XLogP3 is 1.7,Hydrogen_Bond_Donor_Count is 0,Hydrogen_Bond_Acceptor_Count is 1,Rotatable_Bond_Count is 0,Exact_Mass is 107.073499291,Monoisotopic_Mass is 107.073499291,Topological_Polar_Surface_Area is 12.9,""Unit"":""Å²"",Heavy_Atom_Count is 8,Formal_Charge is 0,Complexity is 62.8,Isotope_Atom_Count is 0,Defined_Atom_Stereocenter_Count is 0,Undefined_Atom_Stereocenter_Count is 0,Defined_Bond_Stereocenter_Count is 0,Undefined_Bond_Stereocenter_Count is 0,Covalently_Bonded_Unit_Count is 1,Compound_Is_Canonicalized is Yes,Physical_Description is Lutidineappearsasacolorlessliquidwithapeppermintodor.Lessdensethanwater.Vaporsheavierthanair.Producestoxicoxidesofnitrogenduringcombustion.Usedtomakeotherchemicals."",""Markup"":[{""Start"":0,""Length"":8,""URL"":""https://pubchem.ncbi.nlm.nih.gov/compound/Lutidine"",""Type"":""PubChemInternalLink"",""Extra"":""CID-7937"",Color/Form is Oilyliq,Odor is Odorofpyridinepluspeppermint"",""Markup"":[{""Start"":8,""Length"":8,""URL"":""https://pubchem.ncbi.nlm.nih.gov/compound/pyridine"",""Type"":""PubChemInternalLink"",""Extra"":""CID-1049,Boiling_Point is 144°C@760mmHg,Melting_Point is -5.8°C,Flash_Point is 33°C,Solubility is Slightlysolubleinethanol;solubleinethyletherandacetone"",""Markup"":[{""Start"":20,""Length"":7,""URL"":""https://pubchem.ncbi.nlm.nih.gov/compound/ethanol"",""Type"":""PubChemInternalLink"",""Extra"":""CID-702"",Density is 0.9252@20°C/4°C"
4-methyl-2-methoxyphenol,Cc1ccc(c(c1)OC)O,-5.8,-4.547,"cid is 4116,compound_name is Methoxyflurane,cid_paras is 4116,Molecular_Weight is 164.96,XLogP3 is 2.2,Hydrogen_Bond_Donor_Count is 0,Hydrogen_Bond_Acceptor_Count is 3,Rotatable_Bond_Count is 2,Exact_Mass is 163.9607265,Monoisotopic_Mass is 163.9607265,Topological_Polar_Surface_Area is 9.2,""Unit"":""Å²"",Heavy_Atom_Count is 8,Formal_Charge is 0,Complexity is 75.7,Isotope_Atom_Count is 0,Defined_Atom_Stereocenter_Count is 0,Undefined_Atom_Stereocenter_Count is 0,Defined_Bond_Stereocenter_Count is 0,Undefined_Bond_Stereocenter_Count is 0,Covalently_Bonded_Unit_Count is 1,Compound_Is_Canonicalized is Yes,Physical_Description is Methoxyfluraneisaclearcolorlessliquidwithasweetfruityodor.(NTP,1992)"",""Markup"":[{""Start"":0,""Length"":14,""URL"":""https://pubchem.ncbi.nlm.nih.gov/compound/Methoxyflurane"",""Type"":""PubChemInternalLink"",""Extra"":""CID-4116,Color/Form is Liquid,Odor is Fruity,Boiling_Point is 220.3°Fat760mmHg(NTP,1992),Melting_Point is -31°F(NTP,1992),Flash_Point is 145°F(NTP,1992),Solubility is lessthan1mg/mLat66°F(NTP,1992),Density is 1.426at68°F(NTP,1992)-Denserthanwater;willsink"",""Markup"":[{""Start"":41,""Length"":5,""URL"":""https://pubchem.ncbi.nlm.nih.gov/compound/water"",""Type"":""PubChemInternalLink"",""Extra"":""CID-962"
chlordane,C1[C@H]([C@@H]2[C@H]([C@H]1Cl)[C@]3(C(=C([C@@]2(C3(Cl)Cl)Cl)Cl)Cl)Cl)Cl,-3.44,-3.23,"cid is 8095,compound_name is 2-Ethoxyethyl acetate,cid_paras is 8095,Molecular_Weight is 132.16,XLogP3 is 0.3,Hydrogen_Bond_Donor_Count is 0,Hydrogen_Bond_Acceptor_Count is 3,Rotatable_Bond_Count is 5,Exact_Mass is 132.078644241,Monoisotopic_Mass is 132.078644241,Topological_Polar_Surface_Area is 35.5,""Unit"":""Å²"",Heavy_Atom_Count is 9,Formal_Charge is 0,Complexity is 80.4,Isotope_Atom_Count is 0,Defined_Atom_Stereocenter_Count is 0,Undefined_Atom_Stereocenter_Count is 0,Defined_Bond_Stereocenter_Count is 0,Undefined_Bond_Stereocenter_Count is 0,Covalently_Bonded_Unit_Count is 1,Compound_Is_Canonicalized is Yes,Physical_Description is Ethyleneglycolmonoethyletheracetateappearsasaclearcolorlessliquidwithapleasantodor.Flashpointof120°F.Lessdensethanwater.Vaporsareheavierthanair."",""Markup"":[{""Start"":0,""Length"":39,""URL"":""https://pubchem.ncbi.nlm.nih.gov/compound/Ethylene%20glycol%20monoethyl%20ether%20acetate"",""Type"":""PubChemInternalLink"",""Extra"":""CID-8095"",Color/Form is Colorlessliquid,Odor is MILDESTER-LIKEODORBECOMESOBJECTIONABLEINHIGHCONCN...,Boiling_Point is 313°Fat760mmHg(NTP,1992),Melting_Point is -79.1°F(NTP,1992),Flash_Point is 135°F(NTP,1992),Solubility is greaterthanorequalto100mg/mLat66°F(NTP,1992),Density is 0.974at68°F(USCG,1999)-Lessdensethanwater;willfloat"",""Markup"":[{""Start"":46,""Length"":5,""URL"":""https://pubchem.ncbi.nlm.nih.gov/compound/water"",""Type"":""PubChemInternalLink"",""Extra"":""CID-962"