iupac,smiles,expt,calc,Description
cyclopentanone,C1CCC(=O)C1,-4.7,-3.889,"cid is 31242,compound_name is 4-Ethylphenol,cid_paras is 31242,Molecular_Weight is 122.16,XLogP3 is 2.6,Hydrogen_Bond_Donor_Count is 1,Hydrogen_Bond_Acceptor_Count is 1,Rotatable_Bond_Count is 1,Exact_Mass is 122.073164938,Monoisotopic_Mass is 122.073164938,Topological_Polar_Surface_Area is 20.2,""Unit"":""Å²"",Heavy_Atom_Count is 9,Formal_Charge is 0,Complexity is 72.6,Isotope_Atom_Count is 0,Defined_Atom_Stereocenter_Count is 0,Undefined_Atom_Stereocenter_Count is 0,Defined_Bond_Stereocenter_Count is 0,Undefined_Bond_Stereocenter_Count is 0,Covalently_Bonded_Unit_Count is 1,Compound_Is_Canonicalized is Yes,Physical_Description is Liquid,Color/Form is COLORLESSORWHITENEEDLES;TENDTOYELLOWONEXPOSURETOLIGHT,Odor is POWERFULWOODY-PHENOLIC,YETSOMEWHATSWEET,Boiling_Point is 217.9°C,Melting_Point is 46°C,Flash_Point is 104°C,Solubility is SLIGHTLYSOLINWATER;SOLINALC,ETHER,&BENZENE;SOLINCARBONDISULFIDE,&ACETONE"",""Markup"":[{""Start"":16,""Length"":5,""URL"":""https://pubchem.ncbi.nlm.nih.gov/compound/WATER"",""Type"":""PubChemInternalLink"",""Extra"":""CID-962"",Density is 1.011@20°C"
pentanoic acid,CCCCC(=O)O,-6.16,-9.053,"cid is 17756,compound_name is 2-Propoxyethanol,cid_paras is 17756,Molecular_Weight is 104.15,XLogP3 is 0.5,Hydrogen_Bond_Donor_Count is 1,Hydrogen_Bond_Acceptor_Count is 2,Rotatable_Bond_Count is 4,Exact_Mass is 104.083729621,Monoisotopic_Mass is 104.083729621,Topological_Polar_Surface_Area is 29.5,""Unit"":""Å²"",Heavy_Atom_Count is 7,Formal_Charge is 0,Complexity is 29.3,Isotope_Atom_Count is 0,Defined_Atom_Stereocenter_Count is 0,Undefined_Atom_Stereocenter_Count is 0,Defined_Bond_Stereocenter_Count is 0,Undefined_Bond_Stereocenter_Count is 0,Covalently_Bonded_Unit_Count is 1,Compound_Is_Canonicalized is Yes,Physical_Description is Liquid;colorless;mild,rancidodor;floatsandmixeswithwater.(USCG,1999)"",""Markup"":[{""Start"":60,""Length"":5,""URL"":""https://pubchem.ncbi.nlm.nih.gov/compound/water"",""Type"":""PubChemInternalLink"",""Extra"":""CID-962,Color/Form is Volatileliquid,Odor is Mildetherealodor,Boiling_Point is 301°Fat760mmHg(USCG,1999),Melting_Point is -90°C,Flash_Point is 120°F(USCG,1999),Solubility is Solubleinwater,alcohol,ether"",""Markup"":[{""Start"":11,""Length"":5,""URL"":""https://pubchem.ncbi.nlm.nih.gov/compound/water"",""Type"":""PubChemInternalLink"",""Extra"":""CID-962,Density is 0.908at73°F(USCG,1999)-Lessdensethanwater;willfloat"",""Markup"":[{""Start"":46,""Length"":5,""URL"":""https://pubchem.ncbi.nlm.nih.gov/compound/water"",""Type"":""PubChemInternalLink"",""Extra"":""CID-962"
bromoethane,CCBr,-0.74,0.487,"cid is 74626,compound_name is Phenyl formate,cid_paras is 74626,Molecular_Weight is 122.12,XLogP3 is 1.3,Hydrogen_Bond_Donor_Count is 0,Hydrogen_Bond_Acceptor_Count is 2,Rotatable_Bond_Count is 2,Exact_Mass is 122.036779430,Monoisotopic_Mass is 122.036779430,Topological_Polar_Surface_Area is 26.3,""Unit"":""Å²"",Heavy_Atom_Count is 9,Formal_Charge is 0,Complexity is 84.9,Isotope_Atom_Count is 0,Defined_Atom_Stereocenter_Count is 0,Undefined_Atom_Stereocenter_Count is 0,Defined_Bond_Stereocenter_Count is 0,Undefined_Bond_Stereocenter_Count is 0,Covalently_Bonded_Unit_Count is 1,Compound_Is_Canonicalized is Yes"
"2,6-dimethylnaphthalene",Cc1ccc2cc(ccc2c1)C,-2.63,-2.848,"cid is 69672,compound_name is 5-Iodouracil,cid_paras is 69672,Molecular_Weight is 237.98,XLogP3 is 0,Hydrogen_Bond_Donor_Count is 2,Hydrogen_Bond_Acceptor_Count is 2,Rotatable_Bond_Count is 0,Exact_Mass is 237.92392,Monoisotopic_Mass is 237.92392,Topological_Polar_Surface_Area is 58.2,""Unit"":""Å²"",Heavy_Atom_Count is 9,Formal_Charge is 0,Complexity is 199,Isotope_Atom_Count is 0,Defined_Atom_Stereocenter_Count is 0,Undefined_Atom_Stereocenter_Count is 0,Defined_Bond_Stereocenter_Count is 0,Undefined_Bond_Stereocenter_Count is 0,Covalently_Bonded_Unit_Count is 1,Compound_Is_Canonicalized is Yes"
hexan-1-ol,CCCCCCO,-4.4,-3.0,"cid is 264,compound_name is Butyric Acid,cid_paras is 264,Molecular_Weight is 88.11,XLogP3 is 0.8,Hydrogen_Bond_Donor_Count is 1,Hydrogen_Bond_Acceptor_Count is 2,Rotatable_Bond_Count is 2,Exact_Mass is 88.052429494,Monoisotopic_Mass is 88.052429494,Topological_Polar_Surface_Area is 37.3,""Unit"":""Å²"",Heavy_Atom_Count is 6,Formal_Charge is 0,Complexity is 49.5,Isotope_Atom_Count is 0,Defined_Atom_Stereocenter_Count is 0,Undefined_Atom_Stereocenter_Count is 0,Defined_Bond_Stereocenter_Count is 0,Undefined_Bond_Stereocenter_Count is 0,Covalently_Bonded_Unit_Count is 1,Compound_Is_Canonicalized is Yes,Physical_Description is Butyricacidappearsasacolorlessliquidwithapenetratingandunpleasantodor.Flashpoint170°F.Corrosivetometalsandtissue.Density8.0lb/gal."",""Markup"":[{""Start"":0,""Length"":12,""URL"":""https://pubchem.ncbi.nlm.nih.gov/compound/Butyric%20acid"",""Type"":""PubChemInternalLink"",""Extra"":""CID-264,Color/Form is Oilyliquid,Odor is Unpleasant,rancidodor,Boiling_Point is 326.3°Fat760mmHg(NTP,1992),Melting_Point is 17.8°F(NTP,1992),Flash_Point is 170°F(NTP,1992),Solubility is greaterthanorequalto100mg/mLat66°F(NTP,1992),Density is 0.958at68°F(USCG,1999)-Lessdensethanwater;willfloat"",""Markup"":[{""Start"":46,""Length"":5,""URL"":""https://pubchem.ncbi.nlm.nih.gov/compound/water"",""Type"":""PubChemInternalLink"",""Extra"":""CID-962"
1-chloro-2-phenyl-benzene,c1ccc(cc1)c2ccccc2Cl,-2.69,-2.508,"cid is 18927701,compound_name is 1,1,1-Trifluoro-2,2,2-trimethoxyethane,cid_paras is 18927701,Molecular_Weight is 174.12,XLogP3 is 1,Hydrogen_Bond_Donor_Count is 0,Hydrogen_Bond_Acceptor_Count is 6,Rotatable_Bond_Count is 3,Exact_Mass is 174.05037863,Monoisotopic_Mass is 174.05037863,Topological_Polar_Surface_Area is 27.7,""Unit"":""Å²"",Heavy_Atom_Count is 11,Formal_Charge is 0,Complexity is 110,Isotope_Atom_Count is 0,Defined_Atom_Stereocenter_Count is 0,Undefined_Atom_Stereocenter_Count is 0,Defined_Bond_Stereocenter_Count is 0,Undefined_Bond_Stereocenter_Count is 0,Covalently_Bonded_Unit_Count is 1,Compound_Is_Canonicalized is Yes"
1-methylcyclohexene,CC1=CCCCC1,0.67,1.338,"cid is 6027,compound_name is Alpha-d-xylopyranose,cid_paras is 6027,Molecular_Weight is 150.13,XLogP3 is -2.5,Hydrogen_Bond_Donor_Count is 4,Hydrogen_Bond_Acceptor_Count is 5,Rotatable_Bond_Count is 0,Exact_Mass is 150.05282342,Monoisotopic_Mass is 150.05282342,Topological_Polar_Surface_Area is 90.2,""Unit"":""Å²"",Heavy_Atom_Count is 10,Formal_Charge is 0,Complexity is 117,Isotope_Atom_Count is 0,Defined_Atom_Stereocenter_Count is 4,Undefined_Atom_Stereocenter_Count is 0,Defined_Bond_Stereocenter_Count is 0,Undefined_Bond_Stereocenter_Count is 0,Covalently_Bonded_Unit_Count is 1,Compound_Is_Canonicalized is Yes"
hexyl nitrate,CCCCCCO[N+](=O)[O-],-1.66,-1.596,"cid is 6384,compound_name is Bromotrifluoromethane,cid_paras is 6384,Molecular_Weight is 148.91,XLogP3 is 2.2,Hydrogen_Bond_Donor_Count is 0,Hydrogen_Bond_Acceptor_Count is 3,Rotatable_Bond_Count is 0,Exact_Mass is 147.91355,Monoisotopic_Mass is 147.91355,Topological_Polar_Surface_Area is 0,""Unit"":""Å²"",Heavy_Atom_Count is 5,Formal_Charge is 0,Complexity is 28.4,Isotope_Atom_Count is 0,Defined_Atom_Stereocenter_Count is 0,Undefined_Atom_Stereocenter_Count is 0,Defined_Bond_Stereocenter_Count is 0,Undefined_Bond_Stereocenter_Count is 0,Covalently_Bonded_Unit_Count is 1,Compound_Is_Canonicalized is Yes,Physical_Description is Bromotrifluoromethaneappearsasacolorless,odorlessgasatroomconditionsShippedasaliquidconfinedunderitsownvaporpressure.Noncombustible.Nontoxicbutcanasphyxiatebythedisplacementofair.Contactwiththeunconfinedliquidcancausefrostbitebyevaporativecooling.Exposureofthecontainertoprolongedheatorfirecancauseittoruptureviolentlyandrocket."",""Markup"":[{""Start"":0,""Length"":21,""URL"":""https://pubchem.ncbi.nlm.nih.gov/compound/Bromotrifluoromethane"",""Type"":""PubChemInternalLink"",""Extra"":""CID-6384,Color/Form is Colorlessgas[Note:Shippedasaliquefiedcompressedgas.],Odor is Odorlessgas.,Boiling_Point is -72°Fat760mmHg(NIOSH,2024),Melting_Point is -267°F(NIOSH,2024),Solubility is 0.03%(NIOSH,2024),Density is 1.5800g/ml@20°C(liq)"
bromoform,C(Br)(Br)Br,-2.13,-0.531,"cid is 263,compound_name is 1-Butanol,cid_paras is 263,Molecular_Weight is 74.12,XLogP3 is 0.9,Hydrogen_Bond_Donor_Count is 1,Hydrogen_Bond_Acceptor_Count is 1,Rotatable_Bond_Count is 2,Exact_Mass is 74.073164938,Monoisotopic_Mass is 74.073164938,Topological_Polar_Surface_Area is 20.2,""Unit"":""Å²"",Heavy_Atom_Count is 5,Formal_Charge is 0,Complexity is 13.1,Isotope_Atom_Count is 0,Defined_Atom_Stereocenter_Count is 0,Undefined_Atom_Stereocenter_Count is 0,Defined_Bond_Stereocenter_Count is 0,Undefined_Bond_Stereocenter_Count is 0,Covalently_Bonded_Unit_Count is 1,Compound_Is_Canonicalized is Yes,Physical_Description is N-butylalcoholisacolorlessliquid.Usedinorganicchemicalsynthesis,plasticizers,detergents,etc."",""Markup"":[{""Start"":0,""Length"":15,""URL"":""https://pubchem.ncbi.nlm.nih.gov/compound/N-butyl%20alcohol"",""Type"":""PubChemInternalLink"",""Extra"":""CID-263,Color/Form is Colorlessliquid,Odor is HARSHFUSELODORWITHBANANA,Boiling_Point is 243.9°Fat760mmHg(USCG,1999),Melting_Point is -129°F(USCG,1999),Flash_Point is 84°F(USCG,1999),Solubility is 9%(NIOSH,2024),Density is 0.81at68°F(USCG,1999)-Lessdensethanwater;willfloat"",""Markup"":[{""Start"":45,""Length"":5,""URL"":""https://pubchem.ncbi.nlm.nih.gov/compound/water"",""Type"":""PubChemInternalLink"",""Extra"":""CID-962"
4-ethylphenol,CCc1ccc(cc1)O,-6.13,-5.453,"cid is 10008,compound_name is Fluorobenzene,cid_paras is 10008,Molecular_Weight is 96.10,XLogP3 is 2.3,Hydrogen_Bond_Donor_Count is 0,Hydrogen_Bond_Acceptor_Count is 1,Rotatable_Bond_Count is 0,Exact_Mass is 96.037528322,Monoisotopic_Mass is 96.037528322,Topological_Polar_Surface_Area is 0,""Unit"":""Å²"",Heavy_Atom_Count is 7,Formal_Charge is 0,Complexity is 46.1,Isotope_Atom_Count is 0,Defined_Atom_Stereocenter_Count is 0,Undefined_Atom_Stereocenter_Count is 0,Defined_Bond_Stereocenter_Count is 0,Undefined_Bond_Stereocenter_Count is 0,Covalently_Bonded_Unit_Count is 1,Compound_Is_Canonicalized is Yes,Physical_Description is Fluorobenzeneappearsasaclear,colorlessliquidwithacharacteristicaromaticodor.Aboutthesamedensityaswater.Flashpoint5°F.Vaporsheavierthanair.Mayirritatetheskin,eyes,andmucousmembranes.Usedasaninsecticide,larvacideandasareagentforplasticorresinpolymers."",""Markup"":[{""Start"":0,""Length"":13,""URL"":""https://pubchem.ncbi.nlm.nih.gov/compound/Fluorobenzene"",""Type"":""PubChemInternalLink"",""Extra"":""CID-10008"",Boiling_Point is 185.2°Fat760mmHg(NTP,1992),Melting_Point is -42.2°F(NTP,1992),Flash_Point is 5°F(NTP,1992),Solubility is 1to10mg/mLat68°F(NTP,1992),Density is 1.0225at68°F(USCG,1999)-Denserthanwater;willsink"",""Markup"":[{""Start"":43,""Length"":5,""URL"":""https://pubchem.ncbi.nlm.nih.gov/compound/water"",""Type"":""PubChemInternalLink"",""Extra"":""CID-962"
2-propoxyethanol,CCCOCCO,-6.4,-3.94,"cid is 8857,compound_name is Ethyl Acetate,cid_paras is 8857,Molecular_Weight is 88.11,XLogP3 is 0.7,Hydrogen_Bond_Donor_Count is 0,Hydrogen_Bond_Acceptor_Count is 2,Rotatable_Bond_Count is 2,Exact_Mass is 88.052429494,Monoisotopic_Mass is 88.052429494,Topological_Polar_Surface_Area is 26.3,""Unit"":""Å²"",Heavy_Atom_Count is 6,Formal_Charge is 0,Complexity is 49.5,Isotope_Atom_Count is 0,Defined_Atom_Stereocenter_Count is 0,Undefined_Atom_Stereocenter_Count is 0,Defined_Bond_Stereocenter_Count is 0,Undefined_Bond_Stereocenter_Count is 0,Covalently_Bonded_Unit_Count is 1,Compound_Is_Canonicalized is Yes,Physical_Description is Ethylacetateappearsasaclearcolorlessliquidwithafruityodor.Flashpoint24°F.Lessdensethanwater.Vaporsheavierthanair."",""Markup"":[{""Start"":0,""Length"":13,""URL"":""https://pubchem.ncbi.nlm.nih.gov/compound/Ethyl%20acetate"",""Type"":""PubChemInternalLink"",""Extra"":""CID-8857"",Color/Form is Clear,volatile,Odor is CHARACTERISTICETHER-LIKEODORREMINISCENTOFPINEAPPLE.,Boiling_Point is 171°Fat760mmHg(NTP,1992),Melting_Point is -118.5°F(NTP,1992),Flash_Point is 24°F(NTP,1992),Solubility is 50to100mg/mLat70°F(NTP,1992),Density is 0.902at68°F(USCG,1999)-Lessdensethanwater;willfloat"",""Markup"":[{""Start"":46,""Length"":5,""URL"":""https://pubchem.ncbi.nlm.nih.gov/compound/water"",""Type"":""PubChemInternalLink"",""Extra"":""CID-962"
phenyl formate,c1ccc(cc1)OC=O,-3.82,-5.442,"cid is 7351,compound_name is Isobutyl isobutyrate,cid_paras is 7351,Molecular_Weight is 144.21,XLogP3 is 2.5,Hydrogen_Bond_Donor_Count is 0,Hydrogen_Bond_Acceptor_Count is 2,Rotatable_Bond_Count is 4,Exact_Mass is 144.115029749,Monoisotopic_Mass is 144.115029749,Topological_Polar_Surface_Area is 26.3,""Unit"":""Å²"",Heavy_Atom_Count is 10,Formal_Charge is 0,Complexity is 106,Isotope_Atom_Count is 0,Defined_Atom_Stereocenter_Count is 0,Undefined_Atom_Stereocenter_Count is 0,Defined_Bond_Stereocenter_Count is 0,Undefined_Bond_Stereocenter_Count is 0,Covalently_Bonded_Unit_Count is 1,Compound_Is_Canonicalized is Yes,Physical_Description is Isobutylisobutyrateappearsasacolorlessliquidwithapleasantfruityodor.Moderatelytoxicbyinhalation.Insolubleinwaterandfloatsonwater,butsolubleinalcoholandethers.Itisusedasaflavoringandinthemanufactureofinsecticides."",""Markup"":[{""Start"":0,""Length"":20,""URL"":""https://pubchem.ncbi.nlm.nih.gov/compound/Isobutyl%20isobutyrate"",""Type"":""PubChemInternalLink"",""Extra"":""CID-7351"",Color/Form is COLORLESSLIQUID,Odor is FRUITYODOR,Boiling_Point is 299.7°Fat760mmHg(USCG,1999),Melting_Point is -113.3°F(USCG,1999),Flash_Point is 99°F(USCG,1999),Solubility is 0.5GPER100MLWATER,Density is 0.853to0.857at68°F(USCG,1999)"
5-iodouracil,c1c(c(=O)[nH]c(=O)[nH]1)I,-18.72,-17.742,"cid is 15413,compound_name is Methyl tert-butyl ether,cid_paras is 15413,Molecular_Weight is 88.15,XLogP3 is 0.9,Hydrogen_Bond_Donor_Count is 0,Hydrogen_Bond_Acceptor_Count is 1,Rotatable_Bond_Count is 1,Exact_Mass is 88.088815002,Monoisotopic_Mass is 88.088815002,Topological_Polar_Surface_Area is 9.2,""Unit"":""Å²"",Heavy_Atom_Count is 6,Formal_Charge is 0,Complexity is 33.7,Isotope_Atom_Count is 0,Defined_Atom_Stereocenter_Count is 0,Undefined_Atom_Stereocenter_Count is 0,Defined_Bond_Stereocenter_Count is 0,Undefined_Bond_Stereocenter_Count is 0,Covalently_Bonded_Unit_Count is 1,Compound_Is_Canonicalized is Yes,Physical_Description is Methyltert-butyletherappearsasacolorlessliquidwithadistinctiveanesthetic-likeodor.Vaporsareheavierthanairandnarcotic(causedrowsinesswheninhaled).Thisliquidhasaflashpointlowerthanmostambienttemperatures,soitwillreadilyigniteundermostconditions.Itislessdensethanwaterandmoderatelysolubleinwater.Usedasaoctaneboosteringasoline."",""Markup"":[{""Start"":0,""Length"":23,""URL"":""https://pubchem.ncbi.nlm.nih.gov/compound/Methyl%20tert-butyl%20ether"",""Type"":""PubChemInternalLink"",""Extra"":""CID-15413"",Color/Form is Liquid,Odor is Terpene-likeodor,Boiling_Point is 131.4°Fat760mmHg(USCG,1999),Melting_Point is -164.2°F(USCG,1999),Flash_Point is -14°F(USCG,1999),Solubility is Solubilityofwaterinmethylt-butylether:1.5g/100g;unstableinacidsolution"",""Markup"":[{""Start"":14,""Length"":5,""URL"":""https://pubchem.ncbi.nlm.nih.gov/compound/water"",""Type"":""PubChemInternalLink"",""Extra"":""CID-962"",Density is 0.7405at68°F(USCG,1999)-Lessdensethanwater;willfloat"",""Markup"":[{""Start"":47,""Length"":5,""URL"":""https://pubchem.ncbi.nlm.nih.gov/compound/water"",""Type"":""PubChemInternalLink"",""Extra"":""CID-962"
butyric acid,CCCC(=O)O,-6.35,-9.434,"cid is 85364152,compound_name is Drinox,cid_paras is 85364152,Molecular_Weight is 373.3,XLogP3 is 4.3,Hydrogen_Bond_Donor_Count is 0,Hydrogen_Bond_Acceptor_Count is 0,Rotatable_Bond_Count is 0,Exact_Mass is 371.818144,Monoisotopic_Mass is 369.821094,Topological_Polar_Surface_Area is 0,""Unit"":""Å²"",Heavy_Atom_Count is 17,Formal_Charge is 0,Complexity is 467,Isotope_Atom_Count is 0,Defined_Atom_Stereocenter_Count is 5,Undefined_Atom_Stereocenter_Count is 0,Defined_Bond_Stereocenter_Count is 0,Undefined_Bond_Stereocenter_Count is 0,Covalently_Bonded_Unit_Count is 1,Compound_Is_Canonicalized is Yes"
"1,1,1-trifluoro-2,2,2-trimethoxyethane",COC(C(F)(F)F)(OC)OC,-0.8,-2.319,"cid is 7288,compound_name is 3-Pentanone,cid_paras is 7288,Molecular_Weight is 86.13,XLogP3 is 0.9,Hydrogen_Bond_Donor_Count is 0,Hydrogen_Bond_Acceptor_Count is 1,Rotatable_Bond_Count is 2,Exact_Mass is 86.073164938,Monoisotopic_Mass is 86.073164938,Topological_Polar_Surface_Area is 17.1,""Unit"":""Å²"",Heavy_Atom_Count is 6,Formal_Charge is 0,Complexity is 41.9,Isotope_Atom_Count is 0,Defined_Atom_Stereocenter_Count is 0,Undefined_Atom_Stereocenter_Count is 0,Defined_Bond_Stereocenter_Count is 0,Undefined_Bond_Stereocenter_Count is 0,Covalently_Bonded_Unit_Count is 1,Compound_Is_Canonicalized is Yes,Physical_Description is Diethylketoneappearsasaclearcolorlessliquidwithanacetone-likeodor.Flashpoint55°F.Lessdensethanwater.Vaporsheavierthanair."",""Markup"":[{""Start"":0,""Length"":14,""URL"":""https://pubchem.ncbi.nlm.nih.gov/compound/Diethyl%20ketone"",""Type"":""PubChemInternalLink"",""Extra"":""CID-7288"",Color/Form is Colorless,mobileliquid,Odor is Acetoneodor,Boiling_Point is 216°Fat760mmHg(USCG,1999),Melting_Point is -44°F(USCG,1999),Flash_Point is 55°F(USCG,1999),Solubility is 5%(NIOSH,2024),Density is 0.8159at66.2°F(USCG,1999)-Lessdensethanwater;willfloat"",""Markup"":[{""Start"":49,""Length"":5,""URL"":""https://pubchem.ncbi.nlm.nih.gov/compound/water"",""Type"":""PubChemInternalLink"",""Extra"":""CID-962"
"(2S,3R,4S,5R)-oxane-2,3,4,5-tetrol",C1[C@H]([C@@H]([C@H]([C@H](O1)O)O)O)O,-20.52,-14.148,"cid is 9893,compound_name is Methyl trifluoroacetate,cid_paras is 9893,Molecular_Weight is 128.05,XLogP3 is 0.6,Hydrogen_Bond_Donor_Count is 0,Hydrogen_Bond_Acceptor_Count is 5,Rotatable_Bond_Count is 1,Exact_Mass is 128.00851382,Monoisotopic_Mass is 128.00851382,Topological_Polar_Surface_Area is 26.3,""Unit"":""Å²"",Heavy_Atom_Count is 8,Formal_Charge is 0,Complexity is 95.2,Isotope_Atom_Count is 0,Defined_Atom_Stereocenter_Count is 0,Undefined_Atom_Stereocenter_Count is 0,Defined_Bond_Stereocenter_Count is 0,Undefined_Bond_Stereocenter_Count is 0,Covalently_Bonded_Unit_Count is 1,Compound_Is_Canonicalized is Yes,Physical_Description is Clearcolorlessliquid;[Sigma-AldrichMSDS]"