iupac,smiles,expt,calc,Description
"1,4-diamino-9,10-anthracenedione",c1ccc2c(c1)C(=O)c3c(ccc(c3C2=O)N)N,-11.85,-15.252,"cid is 7892,compound_name is 2-Methylpentane,cid_paras is 7892,Molecular_Weight is 86.18,XLogP3 is 3.2,Hydrogen_Bond_Donor_Count is 0,Hydrogen_Bond_Acceptor_Count is 0,Rotatable_Bond_Count is 2,Exact_Mass is 86.109550447,Monoisotopic_Mass is 86.109550447,Topological_Polar_Surface_Area is 0,""Unit"":""Å²"",Heavy_Atom_Count is 6,Formal_Charge is 0,Complexity is 21.2,Isotope_Atom_Count is 0,Defined_Atom_Stereocenter_Count is 0,Undefined_Atom_Stereocenter_Count is 0,Defined_Bond_Stereocenter_Count is 0,Undefined_Bond_Stereocenter_Count is 0,Covalently_Bonded_Unit_Count is 1,Compound_Is_Canonicalized is Yes,Physical_Description is Wateryliquidwithagasoline-likeodor,Floatsonwater.Producesanirritatingvapor.(USCG,1999)"",""Markup"":[{""Start"":51,""Length"":5,""URL"":""https://pubchem.ncbi.nlm.nih.gov/compound/water"",""Type"":""PubChemInternalLink"",""Extra"":""CID-962,Color/Form is Colorlessliquid,Boiling_Point is 140.5°Fat760mmHg(USCG,1999),Melting_Point is -244.6°F(USCG,1999),Flash_Point is -20°F(USCG,1999),Solubility is Inwater,14mg/L,Density is 0.653at68°F(USCG,1999)-Lessdensethanwater;willfloat"",""Markup"":[{""Start"":46,""Length"":5,""URL"":""https://pubchem.ncbi.nlm.nih.gov/compound/water"",""Type"":""PubChemInternalLink"",""Extra"":""CID-962"
nonan-2-one,CCCCCCCC(=O)C,-2.49,-2.563,"cid is 2730,compound_name is Chlorpyrifos,cid_paras is 2730,Molecular_Weight is 350.6,XLogP3 is 5.3,Hydrogen_Bond_Donor_Count is 0,Hydrogen_Bond_Acceptor_Count is 5,Rotatable_Bond_Count is 6,Exact_Mass is 348.926284,Monoisotopic_Mass is 348.926284,Topological_Polar_Surface_Area is 72.7,""Unit"":""Å²"",Heavy_Atom_Count is 18,Formal_Charge is 0,Complexity is 303,Isotope_Atom_Count is 0,Defined_Atom_Stereocenter_Count is 0,Undefined_Atom_Stereocenter_Count is 0,Defined_Bond_Stereocenter_Count is 0,Undefined_Bond_Stereocenter_Count is 0,Covalently_Bonded_Unit_Count is 1,Compound_Is_Canonicalized is Yes,Physical_Description is Chlorpyrifosisawhitecrystallineorirregularlyflakedsolid.Ithasaveryfaintmercaptan-typeodor.Itisnotsolubleinwater.Itcancauseslightirritationtotheeyeandskin."",""Markup"":[{""Start"":0,""Length"":12,""URL"":""https://pubchem.ncbi.nlm.nih.gov/compound/Chlorpyrifos"",""Type"":""PubChemInternalLink"",""Extra"":""CID-2730"",Color/Form is Whitegranularcrystals,Odor is Mildmercaptanodor,Boiling_Point is 320°Fat760mmHg(Decomposes)(NIOSH,2024),Melting_Point is 108to110°F(NTP,1992),Flash_Point is 82°F(CLOSEDCUP)/DURSBAN4E/"",""Markup"":[{""Start"":20,""Length"":10,""URL"":""https://pubchem.ncbi.nlm.nih.gov/compound/DURSBAN%204E"",""Type"":""PubChemInternalLink"",""Extra"":""CID-2730,Solubility is approximately2mg/Lat77°F(NTP,1992),Density is 1.4(Liquidat110°F)(NIOSH,2024)-Denserthanwater;willsink"",""Markup"":[{""Start"":51,""Length"":5,""URL"":""https://pubchem.ncbi.nlm.nih.gov/compound/water"",""Type"":""PubChemInternalLink"",""Extra"":""CID-962"
butan-1-amine,CCCCN,-4.24,-2.961,"cid is 6408,compound_name is 2-Chloro-1,1,1-trifluoroethane,cid_paras is 6408,Molecular_Weight is 118.48,XLogP3 is 1.9,Hydrogen_Bond_Donor_Count is 0,Hydrogen_Bond_Acceptor_Count is 3,Rotatable_Bond_Count is 0,Exact_Mass is 117.9797122,Monoisotopic_Mass is 117.9797122,Topological_Polar_Surface_Area is 0,""Unit"":""Å²"",Heavy_Atom_Count is 6,Formal_Charge is 0,Complexity is 38.5,Isotope_Atom_Count is 0,Defined_Atom_Stereocenter_Count is 0,Undefined_Atom_Stereocenter_Count is 0,Defined_Bond_Stereocenter_Count is 0,Undefined_Bond_Stereocenter_Count is 0,Covalently_Bonded_Unit_Count is 1,Compound_Is_Canonicalized is Yes,Physical_Description is 1-Chloro-2,2,2-trifluoroethaneisacolorless,odorlessgas.Itisshippedasaliquidunderitsownvaporpressure.Contactwiththeliquidmaycausefrostbitetounprotectedskin.Itcanasphyxiatebythedisplacementofair.Exposureofthecontainertofireorheatcancauseittoruptureviolentlyandrocket."",""Markup"":[{""Start"":0,""Length"":30,""URL"":""https://pubchem.ncbi.nlm.nih.gov/compound/1-Chloro-2%2C2%2C2-trifluoroethane"",""Type"":""PubChemInternalLink"",""Extra"":""CID-6408,Boiling_Point is 6.1°C,Melting_Point is -105.3°C,Solubility is Inwater,9,200mg/l@25°C"",""Markup"":[{""Start"":3,""Length"":5,""URL"":""https://pubchem.ncbi.nlm.nih.gov/compound/water"",""Type"":""PubChemInternalLink"",""Extra"":""CID-962,Density is 1.389g/cucm@0°C"
ethyl butanoate,CCCC(=O)OCC,-2.49,-3.381,"cid is 6325,compound_name is Ethylene,cid_paras is 6325,Molecular_Weight is 28.05,XLogP3 is 1.2,Hydrogen_Bond_Donor_Count is 0,Hydrogen_Bond_Acceptor_Count is 0,Rotatable_Bond_Count is 0,Exact_Mass is 28.0313001276,Monoisotopic_Mass is 28.0313001276,Topological_Polar_Surface_Area is 0,""Unit"":""Å²"",Heavy_Atom_Count is 2,Formal_Charge is 0,Complexity is 0,Isotope_Atom_Count is 0,Defined_Atom_Stereocenter_Count is 0,Undefined_Atom_Stereocenter_Count is 0,Defined_Bond_Stereocenter_Count is 0,Undefined_Bond_Stereocenter_Count is 0,Covalently_Bonded_Unit_Count is 1,Compound_Is_Canonicalized is Yes,Physical_Description is Ethyleneappearsasacolorlessgaswithasweetodorandtaste.Itislighterthanair.Itiseasilyignitedandaflamecaneasilyflashbacktothesourceoftheleak.Underprolongedexposuretofireorheatthecontainersmayruptureviolentlyandrocket.Cancauseexplosion."",""Markup"":[{""Start"":0,""Length"":8,""URL"":""https://pubchem.ncbi.nlm.nih.gov/compound/Ethylene"",""Type"":""PubChemInternalLink"",""Extra"":""CID-6325,Color/Form is Colorlessgas,Odor is Sweet,Boiling_Point is -154.7°Fat760mmHg(USCG,1999),Melting_Point is -272.4°F(USCG,1999),Flash_Point is -213°F(approx.)(USCG,1999),Solubility is Inwater,131mg/Lat25°C"",""Markup"":[{""Start"":3,""Length"":5,""URL"":""https://pubchem.ncbi.nlm.nih.gov/compound/water"",""Type"":""PubChemInternalLink"",""Extra"":""CID-962,Density is 0.569at-154.84°F(USCG,1999)-Lessdensethanwater;willfloat"",""Markup"":[{""Start"":51,""Length"":5,""URL"":""https://pubchem.ncbi.nlm.nih.gov/compound/water"",""Type"":""PubChemInternalLink"",""Extra"":""CID-962"
4-methylaniline,Cc1ccc(cc1)N,-5.57,-5.494,"cid is 12335,compound_name is 1-Iodopentane,cid_paras is 12335,Molecular_Weight is 198.05,XLogP3 is 3.6,Hydrogen_Bond_Donor_Count is 0,Hydrogen_Bond_Acceptor_Count is 0,Rotatable_Bond_Count is 3,Exact_Mass is 197.99055,Monoisotopic_Mass is 197.99055,Topological_Polar_Surface_Area is 0,""Unit"":""Å²"",Heavy_Atom_Count is 6,Formal_Charge is 0,Complexity is 19.9,Isotope_Atom_Count is 0,Defined_Atom_Stereocenter_Count is 0,Undefined_Atom_Stereocenter_Count is 0,Defined_Bond_Stereocenter_Count is 0,Undefined_Bond_Stereocenter_Count is 0,Covalently_Bonded_Unit_Count is 1,Compound_Is_Canonicalized is Yes,Physical_Description is Clearlightredliquid;[Sigma-AldrichMSDS]"
1-iodohexane,CCCCCCI,0.08,0.043,"cid is 9005,compound_name is Trimethoxymethane,cid_paras is 9005,Molecular_Weight is 106.12,XLogP3 is 0.2,Hydrogen_Bond_Donor_Count is 0,Hydrogen_Bond_Acceptor_Count is 3,Rotatable_Bond_Count is 3,Exact_Mass is 106.062994177,Monoisotopic_Mass is 106.062994177,Topological_Polar_Surface_Area is 27.7,""Unit"":""Å²"",Heavy_Atom_Count is 7,Formal_Charge is 0,Complexity is 28.4,Isotope_Atom_Count is 0,Defined_Atom_Stereocenter_Count is 0,Undefined_Atom_Stereocenter_Count is 0,Defined_Bond_Stereocenter_Count is 0,Undefined_Bond_Stereocenter_Count is 0,Covalently_Bonded_Unit_Count is 1,Compound_Is_Canonicalized is Yes,Physical_Description is Liquid,Color/Form is COLORLESSLIQUID,Odor is PUNGENTODOR,Boiling_Point is 100.6°C@760MMHG,Solubility is SOLINETHANOL,INETHER,Density is 0.9676@20°C/4°C"
"1,1,2-trichloro-1,2,2-trifluoro-ethane",C(C(F)(Cl)Cl)(F)(F)Cl,1.77,1.691,"cid is 15600,compound_name is Decane,cid_paras is 15600,Molecular_Weight is 142.28,XLogP3 is 5,Hydrogen_Bond_Donor_Count is 0,Hydrogen_Bond_Acceptor_Count is 0,Rotatable_Bond_Count is 7,Exact_Mass is 142.172150702,Monoisotopic_Mass is 142.172150702,Topological_Polar_Surface_Area is 0,""Unit"":""Å²"",Heavy_Atom_Count is 10,Formal_Charge is 0,Complexity is 40,Isotope_Atom_Count is 0,Defined_Atom_Stereocenter_Count is 0,Undefined_Atom_Stereocenter_Count is 0,Defined_Bond_Stereocenter_Count is 0,Undefined_Bond_Stereocenter_Count is 0,Covalently_Bonded_Unit_Count is 1,Compound_Is_Canonicalized is Yes,Physical_Description is N-decaneappearsasacolorlessliquid.Flashpoint115°F.Lessdensethanwaterandinsolubleinwater.Vaporsheavierthanair.Inhighconcentrationsitsvaporsmaybenarcotic.Usedasasolventandtomakeotherchemicals."",""Markup"":[{""Start"":0,""Length"":8,""URL"":""https://pubchem.ncbi.nlm.nih.gov/compound/N-decane"",""Type"":""PubChemInternalLink"",""Extra"":""CID-15600"",Color/Form is Colorlessliquid,Boiling_Point is 345.4°Fat760mmHg(NTP,1992),Melting_Point is -21.5°F(NTP,1992),Flash_Point is 115°F(NTP,1992),Solubility is lessthan1mg/mLat70°F(NTP,1992),Density is 0.73at60°F(USCG,1999)-Lessdensethanwater;willfloat"",""Markup"":[{""Start"":45,""Length"":5,""URL"":""https://pubchem.ncbi.nlm.nih.gov/compound/water"",""Type"":""PubChemInternalLink"",""Extra"":""CID-962"
trimethyl phosphate,COP(=O)(OC)OC,-8.7,-10.642,"cid is 21075956,compound_name is [(2S)-1-nitrooxypropan-2-yl] nitrate,cid_paras is 21075956,Molecular_Weight is 166.09,XLogP3 is 1.2,Hydrogen_Bond_Donor_Count is 0,Hydrogen_Bond_Acceptor_Count is 6,Rotatable_Bond_Count is 3,Exact_Mass is 166.02258592,Monoisotopic_Mass is 166.02258592,Topological_Polar_Surface_Area is 110,""Unit"":""Å²"",Heavy_Atom_Count is 11,Formal_Charge is 0,Complexity is 147,Isotope_Atom_Count is 0,Defined_Atom_Stereocenter_Count is 1,Undefined_Atom_Stereocenter_Count is 0,Defined_Bond_Stereocenter_Count is 0,Undefined_Bond_Stereocenter_Count is 0,Covalently_Bonded_Unit_Count is 1,Compound_Is_Canonicalized is Yes"
"1,3-dichlorobenzene",c1cc(cc(c1)Cl)Cl,-0.98,-0.11,"cid is 8252,compound_name is Propylene,cid_paras is 8252,Molecular_Weight is 42.08,XLogP3 is 1.4,Hydrogen_Bond_Donor_Count is 0,Hydrogen_Bond_Acceptor_Count is 0,Rotatable_Bond_Count is 0,Exact_Mass is 42.0469501914,Monoisotopic_Mass is 42.0469501914,Topological_Polar_Surface_Area is 0,""Unit"":""Å²"",Heavy_Atom_Count is 3,Formal_Charge is 0,Complexity is 7.5,Isotope_Atom_Count is 0,Defined_Atom_Stereocenter_Count is 0,Undefined_Atom_Stereocenter_Count is 0,Defined_Bond_Stereocenter_Count is 0,Undefined_Bond_Stereocenter_Count is 0,Covalently_Bonded_Unit_Count is 1,Compound_Is_Canonicalized is Yes,Physical_Description is Propyleneisacolorlessgaswithafaintpetroleumlikeodor.Itisshippedasaliquefiedgasunderitsownvaporpressure.Fortransportationitmaybestenched.Contactwiththeliquidcancausefrostbite.Itiseasilyignited.Thevaporsareheavierthanair.Anyleakcaneitherbeliquidorvapor.Itcanasphyxiatebythedisplacementofair.Underprolongedexposuretofireorintenseheatthecontainersmayruptureviolentlyandrocket.Itisusedtomakeotherchemicals.Cancauseexplosion."",""Markup"":[{""Start"":0,""Length"":9,""URL"":""https://pubchem.ncbi.nlm.nih.gov/compound/Propylene"",""Type"":""PubChemInternalLink"",""Extra"":""CID-8252,Color/Form is Colorlessgas,Odor is Practicallyodorless;aromatic,Boiling_Point is -53.9°Fat760mmHg(NTP,1992),Melting_Point is -301.4°F(NTP,1992),Flash_Point is -162°F(NTP,1992),Solubility is 44.6mL/100mL(NTP,1992),Density is 0.609at-52.6°F(USCG,1999)-Lessdensethanwater;willfloat"",""Markup"":[{""Start"":49,""Length"":5,""URL"":""https://pubchem.ncbi.nlm.nih.gov/compound/water"",""Type"":""PubChemInternalLink"",""Extra"":""CID-962"
"1,3-dimethylnaphthalene",Cc1cc(c2ccccc2c1)C,-2.47,-2.995,"cid is 6736,compound_name is Skatole,cid_paras is 6736,Molecular_Weight is 131.17,XLogP3 is 2.6,Hydrogen_Bond_Donor_Count is 1,Hydrogen_Bond_Acceptor_Count is 0,Rotatable_Bond_Count is 0,Exact_Mass is 131.073499291,Monoisotopic_Mass is 131.073499291,Topological_Polar_Surface_Area is 15.8,""Unit"":""Å²"",Heavy_Atom_Count is 10,Formal_Charge is 0,Complexity is 122,Isotope_Atom_Count is 0,Defined_Atom_Stereocenter_Count is 0,Undefined_Atom_Stereocenter_Count is 0,Defined_Bond_Stereocenter_Count is 0,Undefined_Bond_Stereocenter_Count is 0,Covalently_Bonded_Unit_Count is 1,Compound_Is_Canonicalized is Yes,Physical_Description is Whitetobrownishsolidwithafecalodor;[MerckIndex]Odorbecomespleasantandsweetatverylowconcentrations;[HSDB]Whitecrystallineflakeswithastench;[MSDSonline],Color/Form is LEAVESFROMPETROLEUMETHER;WHITE-BROWNSCALES,Odor is CHARACTERISTICFECALODORATHIGHLEVELS,BECOMINGPLEASANT,SWEET,ANDWARMATVERYLOWLEVELS,Boiling_Point is 265-266°C@755MMHG,Melting_Point is 95°C,Solubility is 6.8[ug/mL](ThemeanoftheresultsatpH7.4)"
isohexane,CCCC(C)C,2.51,2.808,"cid is 6604183,compound_name is (1R)-2,2,2-trichloro-1-dimethoxyphosphorylethanol,cid_paras is 6604183,Molecular_Weight is 257.43,XLogP3 is 0.5,Hydrogen_Bond_Donor_Count is 1,Hydrogen_Bond_Acceptor_Count is 4,Rotatable_Bond_Count is 3,Exact_Mass is 255.922579,Monoisotopic_Mass is 255.922579,Topological_Polar_Surface_Area is 55.8,""Unit"":""Å²"",Heavy_Atom_Count is 12,Formal_Charge is 0,Complexity is 183,Isotope_Atom_Count is 0,Defined_Atom_Stereocenter_Count is 1,Undefined_Atom_Stereocenter_Count is 0,Defined_Bond_Stereocenter_Count is 0,Undefined_Bond_Stereocenter_Count is 0,Covalently_Bonded_Unit_Count is 1,Compound_Is_Canonicalized is Yes"
chlorpyrifos,CCOP(=S)(OCC)Oc1c(cc(c(n1)Cl)Cl)Cl,-5.04,-9.625,"cid is 8078,compound_name is Cyclohexane,cid_paras is 8078,Molecular_Weight is 84.16,XLogP3 is 3.4,Hydrogen_Bond_Donor_Count is 0,Hydrogen_Bond_Acceptor_Count is 0,Rotatable_Bond_Count is 0,Exact_Mass is 84.093900383,Monoisotopic_Mass is 84.093900383,Topological_Polar_Surface_Area is 0,""Unit"":""Å²"",Heavy_Atom_Count is 6,Formal_Charge is 0,Complexity is 15.5,Isotope_Atom_Count is 0,Defined_Atom_Stereocenter_Count is 0,Undefined_Atom_Stereocenter_Count is 0,Defined_Bond_Stereocenter_Count is 0,Undefined_Bond_Stereocenter_Count is 0,Covalently_Bonded_Unit_Count is 1,Compound_Is_Canonicalized is Yes,Physical_Description is Cyclohexaneappearsasaclearcolorlessliquidwithapetroleum-likeodor.Usedtomakenylon,asasolvent,paintremover,andtomakeotherchemicals.Flashpoint-4°F.Density6.5lb/gal(lessthanwater)andinsolubleinwater.Vaporsheavierthanair."",""Markup"":[{""Start"":0,""Length"":11,""URL"":""https://pubchem.ncbi.nlm.nih.gov/compound/Cyclohexane"",""Type"":""PubChemInternalLink"",""Extra"":""CID-8078"",Color/Form is Colorlessmobileliquid,Odor is Solventodor;pungentwhenimpure,Boiling_Point is 177.3°Fat760mmHg(NTP,1992),Melting_Point is 43.7°F(NTP,1992),Flash_Point is -4°F(NTP,1992),Solubility is lessthan1mg/mLat63°F(NTP,1992),Density is 0.779at68°F(USCG,1999)-Lessdensethanwater;willfloat"",""Markup"":[{""Start"":46,""Length"":5,""URL"":""https://pubchem.ncbi.nlm.nih.gov/compound/water"",""Type"":""PubChemInternalLink"",""Extra"":""CID-962"
"2-chloro-1,1,1-trifluoro-ethane",C(C(F)(F)F)Cl,0.06,0.233,"cid is 7406,compound_name is Cumene,cid_paras is 7406,Molecular_Weight is 120.19,XLogP3 is 3.7,Hydrogen_Bond_Donor_Count is 0,Hydrogen_Bond_Acceptor_Count is 0,Rotatable_Bond_Count is 1,Exact_Mass is 120.093900383,Monoisotopic_Mass is 120.093900383,Topological_Polar_Surface_Area is 0,""Unit"":""Å²"",Heavy_Atom_Count is 9,Formal_Charge is 0,Complexity is 68.1,Isotope_Atom_Count is 0,Defined_Atom_Stereocenter_Count is 0,Undefined_Atom_Stereocenter_Count is 0,Defined_Bond_Stereocenter_Count is 0,Undefined_Bond_Stereocenter_Count is 0,Covalently_Bonded_Unit_Count is 1,Compound_Is_Canonicalized is Yes,Physical_Description is Cumeneappearsasaclearcolorlessliquidwithanaromaticodor.Lessdensethanwaterandinsolubleinwater.Vaporsheavierthanair.Maybemoderatelytoxicbyinhalation,ingestionandskinabsorption."",""Markup"":[{""Start"":0,""Length"":6,""URL"":""https://pubchem.ncbi.nlm.nih.gov/compound/Cumene"",""Type"":""PubChemInternalLink"",""Extra"":""CID-7406"",Color/Form is Colorlessliquid,Odor is Gasoline-likeodor,Boiling_Point is 306.3°Fat760mmHg(USCG,1999),Melting_Point is -140.9°F(USCG,1999),Flash_Point is 96°F(USCG,1999),Solubility is Insoluble(NIOSH,2024),Density is 0.866at59°F(USCG,1999)-Lessdensethanwater;willfloat"",""Markup"":[{""Start"":46,""Length"":5,""URL"":""https://pubchem.ncbi.nlm.nih.gov/compound/water"",""Type"":""PubChemInternalLink"",""Extra"":""CID-962"
ethylene,C=C,1.28,2.328,"cid is 11269,compound_name is 2,3,4-Trimethylpentane,cid_paras is 11269,Molecular_Weight is 114.23,XLogP3 is 3.7,Hydrogen_Bond_Donor_Count is 0,Hydrogen_Bond_Acceptor_Count is 0,Rotatable_Bond_Count is 2,Exact_Mass is 114.140850574,Monoisotopic_Mass is 114.140850574,Topological_Polar_Surface_Area is 0,""Unit"":""Å²"",Heavy_Atom_Count is 8,Formal_Charge is 0,Complexity is 45.1,Isotope_Atom_Count is 0,Defined_Atom_Stereocenter_Count is 0,Undefined_Atom_Stereocenter_Count is 0,Defined_Bond_Stereocenter_Count is 0,Undefined_Bond_Stereocenter_Count is 0,Covalently_Bonded_Unit_Count is 1,Compound_Is_Canonicalized is Yes,Physical_Description is Colorlessliqiud;[AlfaAesarMSDS]"
1-iodopentane,CCCCCI,-0.14,-0.111,"cid is 11251,compound_name is 3-Methyl-2-butanone,cid_paras is 11251,Molecular_Weight is 86.13,XLogP3 is 0.8,Hydrogen_Bond_Donor_Count is 0,Hydrogen_Bond_Acceptor_Count is 1,Rotatable_Bond_Count is 1,Exact_Mass is 86.073164938,Monoisotopic_Mass is 86.073164938,Topological_Polar_Surface_Area is 17.1,""Unit"":""Å²"",Heavy_Atom_Count is 6,Formal_Charge is 0,Complexity is 55,Isotope_Atom_Count is 0,Defined_Atom_Stereocenter_Count is 0,Undefined_Atom_Stereocenter_Count is 0,Defined_Bond_Stereocenter_Count is 0,Undefined_Bond_Stereocenter_Count is 0,Covalently_Bonded_Unit_Count is 1,Compound_Is_Canonicalized is Yes,Physical_Description is 3-methylbutan-2-oneappearsasacolorlessliquidwithapleasantodor.Flashpointbelow70°F.Lessdensethanwater.Maybetoxicbyinhalationandskinabsorption.Usedasasolvent."",""Markup"":[{""Start"":0,""Length"":19,""URL"":""https://pubchem.ncbi.nlm.nih.gov/compound/3-methylbutan-2-one"",""Type"":""PubChemInternalLink"",""Extra"":""CID-86023880"",Color/Form is Colorlessliquid,Odor is Theodorthresholdliesbetween1.9and3.1ppm(6.8and11mg/cum).Acetone-likeodor."",""Markup"":[{""Start"":70,""Length"":7,""URL"":""https://pubchem.ncbi.nlm.nih.gov/compound/Acetone"",""Type"":""PubChemInternalLink"",""Extra"":""CID-180,Boiling_Point is 201°Fat760mmHg(USCG,1999),Melting_Point is -134°F(USCG,1999),Flash_Point is 43°F(USCG,1999),Solubility is Veryslight(NIOSH,2024),Density is 0.8051at68°F(USCG,1999)-Lessdensethanwater;willfloat"",""Markup"":[{""Start"":47,""Length"":5,""URL"":""https://pubchem.ncbi.nlm.nih.gov/compound/water"",""Type"":""PubChemInternalLink"",""Extra"":""CID-962"
trimethoxymethane,COC(OC)OC,-4.42,-4.625,"cid is 8148,compound_name is Dibutylamine,cid_paras is 8148,Molecular_Weight is 129.24,XLogP3 is 2.8,Hydrogen_Bond_Donor_Count is 1,Hydrogen_Bond_Acceptor_Count is 1,Rotatable_Bond_Count is 6,Exact_Mass is 129.151749610,Monoisotopic_Mass is 129.151749610,Topological_Polar_Surface_Area is 12,""Unit"":""Å²"",Heavy_Atom_Count is 9,Formal_Charge is 0,Complexity is 37.8,Isotope_Atom_Count is 0,Defined_Atom_Stereocenter_Count is 0,Undefined_Atom_Stereocenter_Count is 0,Defined_Bond_Stereocenter_Count is 0,Undefined_Bond_Stereocenter_Count is 0,Covalently_Bonded_Unit_Count is 1,Compound_Is_Canonicalized is Yes,Physical_Description is Di-n-butylamineappearsasayellow-coloredliquidwithaamine-likeodor.Denserthanwater.Verycorrosive,mayburnskin,eyes,andmucousmembranes.Flashpoint125°F.Combustible.Producetoxicoxidesofnitrogenwhenburned.Usedtomakeotherchemicals."",""Markup"":[{""Start"":0,""Length"":15,""URL"":""https://pubchem.ncbi.nlm.nih.gov/compound/Di-n-butylamine"",""Type"":""PubChemInternalLink"",""Extra"":""CID-8148"",Color/Form is Liquid,Odor is AMMONIA-LIKEODOR,Boiling_Point is 318to320°Fat760mmHg(NTP,1992),Melting_Point is -76to-74°F(NTP,1992),Flash_Point is 125°F(NTP,1992),Solubility is Soluble(NTP,1992),Density is 0.759at68°F(USCG,1999)-Lessdensethanwater;willfloat"",""Markup"":[{""Start"":46,""Length"":5,""URL"":""https://pubchem.ncbi.nlm.nih.gov/compound/water"",""Type"":""PubChemInternalLink"",""Extra"":""CID-962"