iupac,smiles,expt,calc,Description
methyl pentanoate,CCCCC(=O)OC,-2.56,-3.492,"cid is 702,compound_name is Ethanol,cid_paras is 702,Molecular_Weight is 46.07,XLogP3 is -0.1,Hydrogen_Bond_Donor_Count is 1,Hydrogen_Bond_Acceptor_Count is 1,Rotatable_Bond_Count is 0,Exact_Mass is 46.041864811,Monoisotopic_Mass is 46.041864811,Topological_Polar_Surface_Area is 20.2,""Unit"":""Å²"",Heavy_Atom_Count is 3,Formal_Charge is 0,Complexity is 2.8,Isotope_Atom_Count is 0,Defined_Atom_Stereocenter_Count is 0,Undefined_Atom_Stereocenter_Count is 0,Defined_Bond_Stereocenter_Count is 0,Undefined_Bond_Stereocenter_Count is 0,Covalently_Bonded_Unit_Count is 1,Compound_Is_Canonicalized is Yes,Physical_Description is Ethanolwithasmallamountofanadulterantaddedsoastobeunfitforuseasabeverage."",""Markup"":[{""Start"":0,""Length"":7,""URL"":""https://pubchem.ncbi.nlm.nih.gov/compound/Ethanol"",""Type"":""PubChemInternalLink"",""Extra"":""CID-702,Color/Form is Clear,colorless,verymobileliquid,Odor is Pleasant,Boiling_Point is 173.3°Fat760mmHg(NTP,1992),Melting_Point is -173.4°F(NTP,1992),Flash_Point is 55°F(NTP,1992),Solubility is greaterthanorequalto100mg/mLat73°F(NTP,1992),Density is 0.79at68°F(USCG,1999)-Lessdensethanwater;willfloat"",""Markup"":[{""Start"":45,""Length"":5,""URL"":""https://pubchem.ncbi.nlm.nih.gov/compound/water"",""Type"":""PubChemInternalLink"",""Extra"":""CID-962"
2-methylpent-1-ene,CCCC(=C)C,1.47,2.486,"cid is 11304,compound_name is 1,4-Dimethylnaphthalene,cid_paras is 11304,Molecular_Weight is 156.22,XLogP3 is 4.4,Hydrogen_Bond_Donor_Count is 0,Hydrogen_Bond_Acceptor_Count is 0,Rotatable_Bond_Count is 0,Exact_Mass is 156.093900383,Monoisotopic_Mass is 156.093900383,Topological_Polar_Surface_Area is 0,""Unit"":""Å²"",Heavy_Atom_Count is 12,Formal_Charge is 0,Complexity is 132,Isotope_Atom_Count is 0,Defined_Atom_Stereocenter_Count is 0,Undefined_Atom_Stereocenter_Count is 0,Defined_Bond_Stereocenter_Count is 0,Undefined_Bond_Stereocenter_Count is 0,Covalently_Bonded_Unit_Count is 1,Compound_Is_Canonicalized is Yes,Physical_Description is Clearredliquid;[MSDSonline]"
flurbiprofen,C[C@@H](c1ccc(c(c1)F)c2ccccc2)C(=O)O,-8.42,-13.953,"cid is 15625,compound_name is 2,3,7,8-Tetrachlorodibenzo-P-dioxin,cid_paras is 15625,Molecular_Weight is 322.0,XLogP3 is 6.4,Hydrogen_Bond_Donor_Count is 0,Hydrogen_Bond_Acceptor_Count is 2,Rotatable_Bond_Count is 0,Exact_Mass is 321.893590,Monoisotopic_Mass is 319.896540,Topological_Polar_Surface_Area is 18.5,""Unit"":""Å²"",Heavy_Atom_Count is 18,Formal_Charge is 0,Complexity is 259,Isotope_Atom_Count is 0,Defined_Atom_Stereocenter_Count is 0,Undefined_Atom_Stereocenter_Count is 0,Defined_Bond_Stereocenter_Count is 0,Undefined_Bond_Stereocenter_Count is 0,Covalently_Bonded_Unit_Count is 1,Compound_Is_Canonicalized is Yes,Physical_Description is 2,3,7,8-tetrachlorodibenzo-p-dioxin(tcdd)appearsaswhitecrystalsortancrystallinepowder.(NTP,1992)"",""Markup"":[{""Start"":0,""Length"":35,""URL"":""https://pubchem.ncbi.nlm.nih.gov/compound/2%2C3%2C7%2C8-tetrachlorodibenzo-p-dioxin"",""Type"":""PubChemInternalLink"",""Extra"":""CID-15625,Color/Form is Colorlessneedles,Boiling_Point is Decomposesat932°F(NTP,1992),Melting_Point is 563°F(NTP,1992),Flash_Point is 4°C(39°F)-closedcup,Solubility is lessthan1mg/mLat77°F(NTP,1992),Density is 1.8g/cm³"
nitralin,CCCN(CCC)c1c(cc(cc1[N+](=O)[O-])S(=O)(=O)C)[N+](=O)[O-],-7.98,-11.246,"cid is 8025,compound_name is Ethyl formate,cid_paras is 8025,Molecular_Weight is 74.08,XLogP3 is 0.5,Hydrogen_Bond_Donor_Count is 0,Hydrogen_Bond_Acceptor_Count is 2,Rotatable_Bond_Count is 2,Exact_Mass is 74.036779430,Monoisotopic_Mass is 74.036779430,Topological_Polar_Surface_Area is 26.3,""Unit"":""Å²"",Heavy_Atom_Count is 5,Formal_Charge is 0,Complexity is 26.1,Isotope_Atom_Count is 0,Defined_Atom_Stereocenter_Count is 0,Undefined_Atom_Stereocenter_Count is 0,Defined_Bond_Stereocenter_Count is 0,Undefined_Bond_Stereocenter_Count is 0,Covalently_Bonded_Unit_Count is 1,Compound_Is_Canonicalized is Yes,Physical_Description is Ethylformateappearsasaclearcolorlessliquidwithapleasantodor.Flashpoint-4°F.Lessdensethanwater.Vaporsheavierthanair."",""Markup"":[{""Start"":0,""Length"":13,""URL"":""https://pubchem.ncbi.nlm.nih.gov/compound/Ethyl%20formate"",""Type"":""PubChemInternalLink"",""Extra"":""CID-8025"",Color/Form is MOBILELIQUID,Odor is Fruityodor.,Boiling_Point is 129.6°Fat760mmHg(USCG,1999),Melting_Point is -110°F(USCG,1999),Flash_Point is -4°F(USCG,1999),Solubility is 9%at64°F(NIOSH,2024),Density is 0.922at68°F(USCG,1999)-Lessdensethanwater;willfloat"",""Markup"":[{""Start"":46,""Length"":5,""URL"":""https://pubchem.ncbi.nlm.nih.gov/compound/water"",""Type"":""PubChemInternalLink"",""Extra"":""CID-962"
chloroethylene,C=CCl,-0.59,1.162,"cid is 7270,compound_name is 1,2,4,5-Tetrachlorobenzene,cid_paras is 7270,Molecular_Weight is 215.9,XLogP3 is 4.6,Hydrogen_Bond_Donor_Count is 0,Hydrogen_Bond_Acceptor_Count is 0,Rotatable_Bond_Count is 0,Exact_Mass is 215.888111,Monoisotopic_Mass is 213.891061,Topological_Polar_Surface_Area is 0,""Unit"":""Å²"",Heavy_Atom_Count is 10,Formal_Charge is 0,Complexity is 90.3,Isotope_Atom_Count is 0,Defined_Atom_Stereocenter_Count is 0,Undefined_Atom_Stereocenter_Count is 0,Defined_Bond_Stereocenter_Count is 0,Undefined_Bond_Stereocenter_Count is 0,Covalently_Bonded_Unit_Count is 1,Compound_Is_Canonicalized is Yes,Physical_Description is 1,2,4,5-tetrachlorobenzeneappearsasodorlesswhiteflakesorchunkysolid.(NTP,1992)"",""Markup"":[{""Start"":0,""Length"":26,""URL"":""https://pubchem.ncbi.nlm.nih.gov/compound/1%2C2%2C4%2C5-tetrachlorobenzene"",""Type"":""PubChemInternalLink"",""Extra"":""CID-7270,Color/Form is COLORLESSSUBLIMABLENEEDLES,Odor is STRONG,UNPLEASANTODOR,Boiling_Point is 464to475°Fat760mmHg(NTP,1992),Melting_Point is 280to284°F(NTP,1992),Flash_Point is 311°F(NTP,1992),Solubility is lessthan1mg/mLat70°F(NTP,1992),Density is 1.858at70°F(NTP,1992)-Denserthanwater;willsink"",""Markup"":[{""Start"":41,""Length"":5,""URL"":""https://pubchem.ncbi.nlm.nih.gov/compound/water"",""Type"":""PubChemInternalLink"",""Extra"":""CID-962"
"N,N-4-trimethylbenzamide",Cc1ccc(cc1)C(=O)N(C)C,-9.76,-8.081,"cid is 84440,compound_name is (Diethoxymethoxy)benzene,cid_paras is 84440,Molecular_Weight is 196.24,XLogP3 is 2.6,Hydrogen_Bond_Donor_Count is 0,Hydrogen_Bond_Acceptor_Count is 3,Rotatable_Bond_Count is 6,Exact_Mass is 196.109944368,Monoisotopic_Mass is 196.109944368,Topological_Polar_Surface_Area is 27.7,""Unit"":""Å²"",Heavy_Atom_Count is 14,Formal_Charge is 0,Complexity is 127,Isotope_Atom_Count is 0,Defined_Atom_Stereocenter_Count is 0,Undefined_Atom_Stereocenter_Count is 0,Defined_Bond_Stereocenter_Count is 0,Undefined_Bond_Stereocenter_Count is 0,Covalently_Bonded_Unit_Count is 1,Compound_Is_Canonicalized is Yes"
heptan-4-one,CCCC(=O)CCC,-2.92,-2.704,"cid is 11137,compound_name is 3-Nitrophenol,cid_paras is 11137,Molecular_Weight is 139.11,XLogP3 is 2,Hydrogen_Bond_Donor_Count is 1,Hydrogen_Bond_Acceptor_Count is 3,Rotatable_Bond_Count is 0,Exact_Mass is 139.026943022,Monoisotopic_Mass is 139.026943022,Topological_Polar_Surface_Area is 66,""Unit"":""Å²"",Heavy_Atom_Count is 10,Formal_Charge is 0,Complexity is 131,Isotope_Atom_Count is 0,Defined_Atom_Stereocenter_Count is 0,Undefined_Atom_Stereocenter_Count is 0,Defined_Bond_Stereocenter_Count is 0,Undefined_Bond_Stereocenter_Count is 0,Covalently_Bonded_Unit_Count is 1,Compound_Is_Canonicalized is Yes,Physical_Description is M-nitrophenolisacolorlesstopaleyellowcrystallinesolid.Sinksinandmixeswithwater.(USCG,1999)"",""Markup"":[{""Start"":0,""Length"":13,""URL"":""https://pubchem.ncbi.nlm.nih.gov/compound/M-nitrophenol"",""Type"":""PubChemInternalLink"",""Extra"":""CID-11137"",Color/Form is Monoclinicprismsfrometheranddilutehydrochloricacid"",""Markup"":[{""Start"":40,""Length"":17,""URL"":""https://pubchem.ncbi.nlm.nih.gov/compound/hydrochloric%20acid"",""Type"":""PubChemInternalLink"",""Extra"":""CID-313,Boiling_Point is 381°Fat70mmHg(NTP,1992),Melting_Point is 205to208°F(NTP,1992),Solubility is lessthan1mg/mLat64°F(NTP,1992),Density is 1.485at68°F1.2797at100°C(Liquid)(USCG,1999)-Denserthanwater;willsink"",""Markup"":[{""Start"":68,""Length"":5,""URL"":""https://pubchem.ncbi.nlm.nih.gov/compound/water"",""Type"":""PubChemInternalLink"",""Extra"":""CID-962"
methyl benzoate,COC(=O)c1ccccc1,-3.92,-4.921,"cid is 957,compound_name is 1-Octanol,cid_paras is 957,Molecular_Weight is 130.23,XLogP3 is 3,Hydrogen_Bond_Donor_Count is 1,Hydrogen_Bond_Acceptor_Count is 1,Rotatable_Bond_Count is 6,Exact_Mass is 130.135765193,Monoisotopic_Mass is 130.135765193,Topological_Polar_Surface_Area is 20.2,""Unit"":""Å²"",Heavy_Atom_Count is 9,Formal_Charge is 0,Complexity is 43.8,Isotope_Atom_Count is 0,Defined_Atom_Stereocenter_Count is 0,Undefined_Atom_Stereocenter_Count is 0,Defined_Bond_Stereocenter_Count is 0,Undefined_Bond_Stereocenter_Count is 0,Covalently_Bonded_Unit_Count is 1,Compound_Is_Canonicalized is Yes,Physical_Description is Octanolappearsasaclearcolorlessliquidwithapenetratingaromaticodor.Insolubleinwaterandfloatsonwater.Vaporsheavierthanair.Vaporsmayirritatetheeyes,nose,andrespiratorysystem."",""Markup"":[{""Start"":0,""Length"":7,""URL"":""https://pubchem.ncbi.nlm.nih.gov/compound/Octanol"",""Type"":""PubChemInternalLink"",""Extra"":""CID-957"",Color/Form is Colorlessliquid,Odor is Freshorangeroseodor,Boiling_Point is 383°Fat760mmHg(USCG,1999),Melting_Point is 5°F(USCG,1999),Flash_Point is 178°F(USCG,1999),Solubility is Inwater,540mg/Lat25°C"",""Markup"":[{""Start"":3,""Length"":5,""URL"":""https://pubchem.ncbi.nlm.nih.gov/compound/water"",""Type"":""PubChemInternalLink"",""Extra"":""CID-962,Density is 0.829at68°F(USCG,1999)-Lessdensethanwater;willfloat"",""Markup"":[{""Start"":46,""Length"":5,""URL"":""https://pubchem.ncbi.nlm.nih.gov/compound/water"",""Type"":""PubChemInternalLink"",""Extra"":""CID-962"
4-methylbenzaldehyde,Cc1ccc(cc1)C=O,-4.27,-5.014,"cid is 7844,compound_name is 1-Butene,cid_paras is 7844,Molecular_Weight is 56.11,XLogP3 is 2.4,Hydrogen_Bond_Donor_Count is 0,Hydrogen_Bond_Acceptor_Count is 0,Rotatable_Bond_Count is 1,Exact_Mass is 56.062600255,Monoisotopic_Mass is 56.062600255,Topological_Polar_Surface_Area is 0,""Unit"":""Å²"",Heavy_Atom_Count is 4,Formal_Charge is 0,Complexity is 14,Isotope_Atom_Count is 0,Defined_Atom_Stereocenter_Count is 0,Undefined_Atom_Stereocenter_Count is 0,Defined_Bond_Stereocenter_Count is 0,Undefined_Bond_Stereocenter_Count is 0,Covalently_Bonded_Unit_Count is 1,Compound_Is_Canonicalized is Yes,Physical_Description is 1-buteneisacolorlessgas.(NTP,1992)"",""Markup"":[{""Start"":0,""Length"":8,""URL"":""https://pubchem.ncbi.nlm.nih.gov/compound/1-butene"",""Type"":""PubChemInternalLink"",""Extra"":""CID-7844,Color/Form is Colorlessgas,Odor is Slightlyaromaticodor,Boiling_Point is 21°Fat760mmHg(NTP,1992),Melting_Point is -301.5°F(NTP,1992),Flash_Point is -110°F(NTP,1992),Solubility is Insoluble(NTP,1992),Density is 0.6255at19.9°F(NTP,1992)-Lessdensethanwater;willfloat"",""Markup"":[{""Start"":48,""Length"":5,""URL"":""https://pubchem.ncbi.nlm.nih.gov/compound/water"",""Type"":""PubChemInternalLink"",""Extra"":""CID-962"
propyl butanoate,CCCC(=O)OCCC,-2.28,-2.754,"cid is 5943,compound_name is Carbon Tetrachloride,cid_paras is 5943,Molecular_Weight is 153.8,XLogP3 is 2.8,Hydrogen_Bond_Donor_Count is 0,Hydrogen_Bond_Acceptor_Count is 0,Rotatable_Bond_Count is 0,Exact_Mass is 153.872461,Monoisotopic_Mass is 151.875411,Topological_Polar_Surface_Area is 0,""Unit"":""Å²"",Heavy_Atom_Count is 5,Formal_Charge is 0,Complexity is 19.1,Isotope_Atom_Count is 0,Defined_Atom_Stereocenter_Count is 0,Undefined_Atom_Stereocenter_Count is 0,Defined_Bond_Stereocenter_Count is 0,Undefined_Bond_Stereocenter_Count is 0,Covalently_Bonded_Unit_Count is 1,Compound_Is_Canonicalized is Yes,Physical_Description is Carbontetrachlorideappearsasaclearcolorlessliquidwithacharacteristicodor.Denserthanwater(13.2lb/gal)andinsolubleinwater.Noncombustible.Maycauseillnessbyinhalation,skinabsorptionand/oringestion.Usedasasolvent,inthemanufactureofotherchemicals,asanagriculturalfumigant,andformanyotheruses."",""Markup"":[{""Start"":0,""Length"":20,""URL"":""https://pubchem.ncbi.nlm.nih.gov/compound/Carbon%20tetrachloride"",""Type"":""PubChemInternalLink"",""Extra"":""CID-5943"",Color/Form is Liquid,Odor is Sweet,Boiling_Point is 170.1°Fat760mmHg(NTP,1992),Melting_Point is -9°F(NTP,1992),Solubility is lessthan1mg/mLat70°F(NTP,1992),Density is 1.59at68°F(USCG,1999)-Denserthanwater;willsink"",""Markup"":[{""Start"":41,""Length"":5,""URL"":""https://pubchem.ncbi.nlm.nih.gov/compound/water"",""Type"":""PubChemInternalLink"",""Extra"":""CID-962"
piperazine,C1CNCCN1,-7.4,-8.481,"cid is 6054,compound_name is Phenylethyl Alcohol,cid_paras is 6054,Molecular_Weight is 122.16,XLogP3 is 1.4,Hydrogen_Bond_Donor_Count is 1,Hydrogen_Bond_Acceptor_Count is 1,Rotatable_Bond_Count is 2,Exact_Mass is 122.073164938,Monoisotopic_Mass is 122.073164938,Topological_Polar_Surface_Area is 20.2,""Unit"":""Å²"",Heavy_Atom_Count is 9,Formal_Charge is 0,Complexity is 65,Isotope_Atom_Count is 0,Defined_Atom_Stereocenter_Count is 0,Undefined_Atom_Stereocenter_Count is 0,Defined_Bond_Stereocenter_Count is 0,Undefined_Bond_Stereocenter_Count is 0,Covalently_Bonded_Unit_Count is 1,Compound_Is_Canonicalized is Yes,Physical_Description is Liquid;DryPowder,Liquid,OtherSolid,Color/Form is COLORLESS,VISCOUSLIQUID,Odor is CHARACTERISTICROSE-LIKEODOR,Boiling_Point is 218.2,""Unit"":""°C"",Melting_Point is -27,""Unit"":""°C"",Flash_Point is 102°C,Solubility is 22200,""Unit"":""mg/L(at25°C)"",Density is 1.0202AT20°C/4°C"
dialifor,CCOP(=S)(OCC)S[C@@H](CCl)N1C(=O)c2ccccc2C1=O,-5.74,-16.515,"cid is 7560,compound_name is Fenuron,cid_paras is 7560,Molecular_Weight is 164.20,XLogP3 is 1,Hydrogen_Bond_Donor_Count is 1,Hydrogen_Bond_Acceptor_Count is 1,Rotatable_Bond_Count is 1,Exact_Mass is 164.094963011,Monoisotopic_Mass is 164.094963011,Topological_Polar_Surface_Area is 32.3,""Unit"":""Å²"",Heavy_Atom_Count is 12,Formal_Charge is 0,Complexity is 151,Isotope_Atom_Count is 0,Defined_Atom_Stereocenter_Count is 0,Undefined_Atom_Stereocenter_Count is 0,Defined_Bond_Stereocenter_Count is 0,Undefined_Bond_Stereocenter_Count is 0,Covalently_Bonded_Unit_Count is 1,Compound_Is_Canonicalized is Yes,Physical_Description is DryPowder;WaterorSolventWetSolid"",""Markup"":[{""Start"":12,""Length"":5,""URL"":""https://pubchem.ncbi.nlm.nih.gov/compound/Water"",""Type"":""PubChemInternalLink"",""Extra"":""CID-962,Color/Form is White,crystallinesolid,Melting_Point is 133-134°C,Solubility is >24.6[ug/mL](ThemeanoftheresultsatpH7.4),Density is 1.08at20°C/20°C"
2-ethoxyethanol,CCOCCO,-6.69,-4.407,"cid is 12232,compound_name is Dimethyl Disulfide,cid_paras is 12232,Molecular_Weight is 94.20,XLogP3 is 1.8,Hydrogen_Bond_Donor_Count is 0,Hydrogen_Bond_Acceptor_Count is 2,Rotatable_Bond_Count is 1,Exact_Mass is 93.99109254,Monoisotopic_Mass is 93.99109254,Topological_Polar_Surface_Area is 50.6,""Unit"":""Å²"",Heavy_Atom_Count is 4,Formal_Charge is 0,Complexity is 6,Isotope_Atom_Count is 0,Defined_Atom_Stereocenter_Count is 0,Undefined_Atom_Stereocenter_Count is 0,Defined_Bond_Stereocenter_Count is 0,Undefined_Bond_Stereocenter_Count is 0,Covalently_Bonded_Unit_Count is 1,Compound_Is_Canonicalized is Yes,Physical_Description is Dimethyldisulfideappearsasacolorlessoilyliquidwithagarlic-likeodor.Denserthanwaterandslightlysolubleinwater.Vaporsheavierthanair.Mayirritateskinandeyes.Usedtomakeotherchemicals."",""Markup"":[{""Start"":0,""Length"":18,""URL"":""https://pubchem.ncbi.nlm.nih.gov/compound/Dimethyl%20disulfide"",""Type"":""PubChemInternalLink"",""Extra"":""CID-12232"",Color/Form is Yellowliquid,Odor is Garlic-like,Boiling_Point is 229.5°Fat760mmHg(NTP,1992),Melting_Point is -120.5°F(NTP,1992),Flash_Point is 76°F(NTP,1992),Solubility is lessthan1mg/mLat68°F(NTP,1992),Density is 1.065at68°F(NTP,1992)-Denserthanwater;willsink"",""Markup"":[{""Start"":41,""Length"":5,""URL"":""https://pubchem.ncbi.nlm.nih.gov/compound/water"",""Type"":""PubChemInternalLink"",""Extra"":""CID-962"
3-methylpentane,CCC(C)CC,2.51,2.613,"cid is 86336697,compound_name is (3aR,7aR)-2-(trichloromethylsulfanyl)-3a,4,7,7a-tetrahydroisoindole-1,3-dione,cid_paras is 86336697,Molecular_Weight is 300.6,XLogP3 is 2.4,Hydrogen_Bond_Donor_Count is 0,Hydrogen_Bond_Acceptor_Count is 3,Rotatable_Bond_Count is 1,Exact_Mass is 298.934133,Monoisotopic_Mass is 298.934133,Topological_Polar_Surface_Area is 62.7,""Unit"":""Å²"",Heavy_Atom_Count is 16,Formal_Charge is 0,Complexity is 340,Isotope_Atom_Count is 0,Defined_Atom_Stereocenter_Count is 2,Undefined_Atom_Stereocenter_Count is 0,Defined_Bond_Stereocenter_Count is 0,Undefined_Bond_Stereocenter_Count is 0,Covalently_Bonded_Unit_Count is 1,Compound_Is_Canonicalized is Yes"
2-methylpyrazine,Cc1cnccn1,-5.51,-6.161,"cid is 5541,compound_name is Triacetin,cid_paras is 5541,Molecular_Weight is 218.20,XLogP3 is 0.2,Hydrogen_Bond_Donor_Count is 0,Hydrogen_Bond_Acceptor_Count is 6,Rotatable_Bond_Count is 8,Exact_Mass is 218.07903816,Monoisotopic_Mass is 218.07903816,Topological_Polar_Surface_Area is 78.9,""Unit"":""Å²"",Heavy_Atom_Count is 15,Formal_Charge is 0,Complexity is 229,Isotope_Atom_Count is 0,Defined_Atom_Stereocenter_Count is 0,Undefined_Atom_Stereocenter_Count is 0,Defined_Bond_Stereocenter_Count is 0,Undefined_Bond_Stereocenter_Count is 0,Covalently_Bonded_Unit_Count is 1,Compound_Is_Canonicalized is Yes,Physical_Description is Liquid;DryPowder,Color/Form is Colorlessliquid,Odor is Slightlyfattyodor,Boiling_Point is 258-259°C,Melting_Point is -78°C,Flash_Point is 280°F(138°C)(closedcup),Solubility is Inwater,52,130mg/Lat24.5°C"",""Markup"":[{""Start"":3,""Length"":5,""URL"":""https://pubchem.ncbi.nlm.nih.gov/compound/water"",""Type"":""PubChemInternalLink"",""Extra"":""CID-962,Density is 1.1583g/cucmat20°C"
1-nitropropane,CCC[N+](=O)[O-],-3.34,-1.632,"cid is 8254,compound_name is Dimethyl Ether,cid_paras is 8254,Molecular_Weight is 46.07,XLogP3 is 0.1,Hydrogen_Bond_Donor_Count is 0,Hydrogen_Bond_Acceptor_Count is 1,Rotatable_Bond_Count is 0,Exact_Mass is 46.041864811,Monoisotopic_Mass is 46.041864811,Topological_Polar_Surface_Area is 9.2,""Unit"":""Å²"",Heavy_Atom_Count is 3,Formal_Charge is 0,Complexity is 2.8,Isotope_Atom_Count is 0,Defined_Atom_Stereocenter_Count is 0,Undefined_Atom_Stereocenter_Count is 0,Defined_Bond_Stereocenter_Count is 0,Undefined_Bond_Stereocenter_Count is 0,Covalently_Bonded_Unit_Count is 1,Compound_Is_Canonicalized is Yes,Physical_Description is Dimethyletherisacolorlessgaswithafaintetherealodor.Itisshippedasaliquefiedgasunderitsvaporpressure.Contactwiththeliquidcancausefrostbite.Itiseasilyignited.Itsvaporsareheavierthanair.Anyleakcanbeeitherliquidorvapor.Itcanasphyxiatebythedisplacementofair.Underprolongedexposuretofireorintenseheatthecontainersmayruptureviolentlyandrocket."",""Markup"":[{""Start"":0,""Length"":14,""URL"":""https://pubchem.ncbi.nlm.nih.gov/compound/Dimethyl%20ether"",""Type"":""PubChemInternalLink"",""Extra"":""CID-8254,Color/Form is COLORLESSGAS@USUALTEMP,BUTEASILYCONDENSIBLE,Odor is Slightetherealodor,Boiling_Point is -8°Fat760mmHg(NTP,1992),Melting_Point is -217.3°F(NTP,1992),Flash_Point is 25°F(NTP,1992),Solubility is 1volwatertakesup37volgas"",""Markup"":[{""Start"":6,""Length"":5,""URL"":""https://pubchem.ncbi.nlm.nih.gov/compound/water"",""Type"":""PubChemInternalLink"",""Extra"":""CID-962,Density is 0.724at-12.46°F(USCG,1999)-Lessdensethanwater;willfloat"",""Markup"":[{""Start"":50,""Length"":5,""URL"":""https://pubchem.ncbi.nlm.nih.gov/compound/water"",""Type"":""PubChemInternalLink"",""Extra"":""CID-962"