iupac,smiles,expt,calc,Description
2-chloropropane,CC(C)Cl,-0.25,0.833,"cid is 11582,compound_name is 2-Methylhexane,cid_paras is 11582,Molecular_Weight is 100.20,XLogP3 is 3.7,Hydrogen_Bond_Donor_Count is 0,Hydrogen_Bond_Acceptor_Count is 0,Rotatable_Bond_Count is 3,Exact_Mass is 100.125200510,Monoisotopic_Mass is 100.125200510,Topological_Polar_Surface_Area is 0,""Unit"":""Å²"",Heavy_Atom_Count is 7,Formal_Charge is 0,Complexity is 29,Isotope_Atom_Count is 0,Defined_Atom_Stereocenter_Count is 0,Undefined_Atom_Stereocenter_Count is 0,Defined_Bond_Stereocenter_Count is 0,Undefined_Bond_Stereocenter_Count is 0,Covalently_Bonded_Unit_Count is 1,Compound_Is_Canonicalized is Yes,Physical_Description is Liquid,Boiling_Point is 90°C,Melting_Point is -118°C,Flash_Point is -18°Cc.c.,Solubility is Solubilityinwater:none,Density is Relativedensity(water=1):0.68"",""Markup"":[{""Start"":18,""Length"":5,""URL"":""https://pubchem.ncbi.nlm.nih.gov/compound/water"",""Type"":""PubChemInternalLink"",""Extra"":""CID-962"
"1,3-dichloropropane",C(CCl)CCl,-1.89,-0.416,"cid is 6720,compound_name is Pentachloronitrobenzene,cid_paras is 6720,Molecular_Weight is 295.3,XLogP3 is 4.2,Hydrogen_Bond_Donor_Count is 0,Hydrogen_Bond_Acceptor_Count is 2,Rotatable_Bond_Count is 0,Exact_Mass is 294.834217,Monoisotopic_Mass is 292.837167,Topological_Polar_Surface_Area is 45.8,""Unit"":""Å²"",Heavy_Atom_Count is 14,Formal_Charge is 0,Complexity is 219,Isotope_Atom_Count is 0,Defined_Atom_Stereocenter_Count is 0,Undefined_Atom_Stereocenter_Count is 0,Defined_Bond_Stereocenter_Count is 0,Undefined_Bond_Stereocenter_Count is 0,Covalently_Bonded_Unit_Count is 1,Compound_Is_Canonicalized is Yes,Physical_Description is Quintozeneappearsascrystallinepaleyellowtowhitesolidorpowderwithamustymothballodor.Insolubleinwateranddenserthanwater.Hencesinksinwater."",""Markup"":[{""Start"":0,""Length"":10,""URL"":""https://pubchem.ncbi.nlm.nih.gov/compound/Quintozene"",""Type"":""PubChemInternalLink"",""Extra"":""CID-6720"",Color/Form is Paleyellowcrystals,Odor is Mustyodor,Boiling_Point is 622°Fat760mmHg(withsomedecomposition)(NTP,1992),Melting_Point is 295°F(NTP,1992),Solubility is lessthan1mg/mLat72°F(NTP,1992),Density is 1.718at77°F(NTP,1992)-Denserthanwater;willsink"",""Markup"":[{""Start"":41,""Length"":5,""URL"":""https://pubchem.ncbi.nlm.nih.gov/compound/water"",""Type"":""PubChemInternalLink"",""Extra"":""CID-962"
4-nitrophenol,c1cc(ccc1[N+](=O)[O-])O,-10.64,-8.472,"cid is 445258,compound_name is (R)-halothane,cid_paras is 445258,Molecular_Weight is 197.38,XLogP3 is 2.3,Hydrogen_Bond_Donor_Count is 0,Hydrogen_Bond_Acceptor_Count is 3,Rotatable_Bond_Count is 0,Exact_Mass is 195.89022,Monoisotopic_Mass is 195.89022,Topological_Polar_Surface_Area is 0,""Unit"":""Å²"",Heavy_Atom_Count is 7,Formal_Charge is 0,Complexity is 60.4,Isotope_Atom_Count is 0,Defined_Atom_Stereocenter_Count is 1,Undefined_Atom_Stereocenter_Count is 0,Defined_Bond_Stereocenter_Count is 0,Undefined_Bond_Stereocenter_Count is 0,Covalently_Bonded_Unit_Count is 1,Compound_Is_Canonicalized is Yes"
"1,2-dichloropropane",C[C@@H](CCl)Cl,-1.27,-0.265,"cid is 8909,compound_name is Dibutyl ether,cid_paras is 8909,Molecular_Weight is 130.23,XLogP3 is 3.2,Hydrogen_Bond_Donor_Count is 0,Hydrogen_Bond_Acceptor_Count is 1,Rotatable_Bond_Count is 6,Exact_Mass is 130.135765193,Monoisotopic_Mass is 130.135765193,Topological_Polar_Surface_Area is 9.2,""Unit"":""Å²"",Heavy_Atom_Count is 9,Formal_Charge is 0,Complexity is 37.8,Isotope_Atom_Count is 0,Defined_Atom_Stereocenter_Count is 0,Undefined_Atom_Stereocenter_Count is 0,Defined_Bond_Stereocenter_Count is 0,Undefined_Bond_Stereocenter_Count is 0,Covalently_Bonded_Unit_Count is 1,Compound_Is_Canonicalized is Yes,Physical_Description is N-butyletherappearsasaclearcolorlessliquidwithanetherealodor.Flashpointbelow141°F.Lessdensethanwaterandinsolubleinwater.Vaporsheavierthanair.Irritatestheeyes,nose,throat,andrespiratorytract."",""Markup"":[{""Start"":0,""Length"":13,""URL"":""https://pubchem.ncbi.nlm.nih.gov/compound/N-butyl%20ether"",""Type"":""PubChemInternalLink"",""Extra"":""CID-8909"",Color/Form is Colorlessliquid,Odor is Mild,etherealodor,Boiling_Point is 288°Fat760mmHg(NTP,1992),Melting_Point is -144°F(NTP,1992),Flash_Point is 77°F(NTP,1992),Solubility is lessthan1mg/mLat72.5°F(NTP,1992),Density is 0.767at68°F(USCG,1999)-Lessdensethanwater;willfloat"",""Markup"":[{""Start"":46,""Length"":5,""URL"":""https://pubchem.ncbi.nlm.nih.gov/compound/water"",""Type"":""PubChemInternalLink"",""Extra"":""CID-962"
4-chloroaniline,c1cc(ccc1N)Cl,-5.9,-5.281,"cid is 19540,compound_name is Pentylcyclopentane,cid_paras is 19540,Molecular_Weight is 140.27,XLogP3 is 5.1,Hydrogen_Bond_Donor_Count is 0,Hydrogen_Bond_Acceptor_Count is 0,Rotatable_Bond_Count is 4,Exact_Mass is 140.156500638,Monoisotopic_Mass is 140.156500638,Topological_Polar_Surface_Area is 0,""Unit"":""Å²"",Heavy_Atom_Count is 10,Formal_Charge is 0,Complexity is 70.1,Isotope_Atom_Count is 0,Defined_Atom_Stereocenter_Count is 0,Undefined_Atom_Stereocenter_Count is 0,Defined_Bond_Stereocenter_Count is 0,Undefined_Bond_Stereocenter_Count is 0,Covalently_Bonded_Unit_Count is 1,Compound_Is_Canonicalized is Yes"
"1-amino-9,10-anthracenedione",c1ccc2c(c1)C(=O)c3cccc(c3C2=O)N,-9.44,-12.214,"cid is 7907,compound_name is 2,4-Dimethylpentane,cid_paras is 7907,Molecular_Weight is 100.20,XLogP3 is 3.4,Hydrogen_Bond_Donor_Count is 0,Hydrogen_Bond_Acceptor_Count is 0,Rotatable_Bond_Count is 2,Exact_Mass is 100.125200510,Monoisotopic_Mass is 100.125200510,Topological_Polar_Surface_Area is 0,""Unit"":""Å²"",Heavy_Atom_Count is 7,Formal_Charge is 0,Complexity is 29.3,Isotope_Atom_Count is 0,Defined_Atom_Stereocenter_Count is 0,Undefined_Atom_Stereocenter_Count is 0,Defined_Bond_Stereocenter_Count is 0,Undefined_Bond_Stereocenter_Count is 0,Covalently_Bonded_Unit_Count is 1,Compound_Is_Canonicalized is Yes,Physical_Description is Colorlessliquid;[AlfaAesarMSDS]"
"2,3-dimethylpyridine",Cc1cccnc1C,-4.82,-3.367,"cid is 11526,compound_name is 2,5-Dimethylpyridine,cid_paras is 11526,Molecular_Weight is 107.15,XLogP3 is 1.6,Hydrogen_Bond_Donor_Count is 0,Hydrogen_Bond_Acceptor_Count is 1,Rotatable_Bond_Count is 0,Exact_Mass is 107.073499291,Monoisotopic_Mass is 107.073499291,Topological_Polar_Surface_Area is 12.9,""Unit"":""Å²"",Heavy_Atom_Count is 8,Formal_Charge is 0,Complexity is 70.8,Isotope_Atom_Count is 0,Defined_Atom_Stereocenter_Count is 0,Undefined_Atom_Stereocenter_Count is 0,Defined_Bond_Stereocenter_Count is 0,Undefined_Bond_Stereocenter_Count is 0,Covalently_Bonded_Unit_Count is 1,Compound_Is_Canonicalized is Yes,Physical_Description is Colorlesstolightyellowliquid;[JubilantLifeSciencesMSDS]"
pyridine-4-carbonitrile,c1cnccc1C#N,-6.02,-5.765,"cid is 10326,compound_name is Indan,cid_paras is 10326,Molecular_Weight is 118.18,XLogP3 is 3.2,Hydrogen_Bond_Donor_Count is 0,Hydrogen_Bond_Acceptor_Count is 0,Rotatable_Bond_Count is 0,Exact_Mass is 118.078250319,Monoisotopic_Mass is 118.078250319,Topological_Polar_Surface_Area is 0,""Unit"":""Å²"",Heavy_Atom_Count is 9,Formal_Charge is 0,Complexity is 84.2,Isotope_Atom_Count is 0,Defined_Atom_Stereocenter_Count is 0,Undefined_Atom_Stereocenter_Count is 0,Defined_Bond_Stereocenter_Count is 0,Undefined_Bond_Stereocenter_Count is 0,Covalently_Bonded_Unit_Count is 1,Compound_Is_Canonicalized is Yes,Physical_Description is Liquid;[MerckIndex]Clearlightyellowliquid;[Sigma-AldrichMSDS]"
diethoxy-(ethylsulfanylmethylsulfanyl)-thioxo-$l^{5}-phosphane,CCOP(=S)(OCC)SCSCC,-4.37,-6.427,"cid is 91662,compound_name is 2,2',4,6,6'-Pentachlorobiphenyl,cid_paras is 91662,Molecular_Weight is 326.4,XLogP3 is 5.8,Hydrogen_Bond_Donor_Count is 0,Hydrogen_Bond_Acceptor_Count is 0,Rotatable_Bond_Count is 1,Exact_Mass is 325.880439,Monoisotopic_Mass is 323.883389,Topological_Polar_Surface_Area is 0,""Unit"":""Å²"",Heavy_Atom_Count is 17,Formal_Charge is 0,Complexity is 237,Isotope_Atom_Count is 0,Defined_Atom_Stereocenter_Count is 0,Undefined_Atom_Stereocenter_Count is 0,Defined_Bond_Stereocenter_Count is 0,Undefined_Bond_Stereocenter_Count is 0,Covalently_Bonded_Unit_Count is 1,Compound_Is_Canonicalized is Yes"
1-cyclohexylethanone,CC(=O)C1CCCCC1,-3.9,-4.003,"cid is 129856713,compound_name is [(1r)-1,2,2-Trifluoroethoxy]benzene,cid_paras is 129856713,Molecular_Weight is 176.14,XLogP3 is 2.9,Hydrogen_Bond_Donor_Count is 0,Hydrogen_Bond_Acceptor_Count is 4,Rotatable_Bond_Count is 3,Exact_Mass is 176.04489933,Monoisotopic_Mass is 176.04489933,Topological_Polar_Surface_Area is 9.2,""Unit"":""Å²"",Heavy_Atom_Count is 12,Formal_Charge is 0,Complexity is 124,Isotope_Atom_Count is 0,Defined_Atom_Stereocenter_Count is 1,Undefined_Atom_Stereocenter_Count is 0,Defined_Bond_Stereocenter_Count is 0,Undefined_Bond_Stereocenter_Count is 0,Covalently_Bonded_Unit_Count is 1,Compound_Is_Canonicalized is Yes"
2-methylbenzaldehyde,Cc1ccccc1C=O,-3.93,-4.554,"cid is 8071,compound_name is 1,2-Dimethoxyethane,cid_paras is 8071,Molecular_Weight is 90.12,XLogP3 is -0.2,Hydrogen_Bond_Donor_Count is 0,Hydrogen_Bond_Acceptor_Count is 2,Rotatable_Bond_Count is 3,Exact_Mass is 90.068079557,Monoisotopic_Mass is 90.068079557,Topological_Polar_Surface_Area is 18.5,""Unit"":""Å²"",Heavy_Atom_Count is 6,Formal_Charge is 0,Complexity is 17.5,Isotope_Atom_Count is 0,Defined_Atom_Stereocenter_Count is 0,Undefined_Atom_Stereocenter_Count is 0,Defined_Bond_Stereocenter_Count is 0,Undefined_Bond_Stereocenter_Count is 0,Covalently_Bonded_Unit_Count is 1,Compound_Is_Canonicalized is Yes,Physical_Description is 1,2-dimethoxyethaneappearsasaliquidwithasharpodor.Lessdensethanwater.Flashpoint34°F.Mildlytoxicbyingestionandinhalation.Severelyirritatesskinandeyes.Vaporsheavierthanair.Usedtomakeotherchemicals."",""Markup"":[{""Start"":0,""Length"":19,""URL"":""https://pubchem.ncbi.nlm.nih.gov/compound/1%2C2-dimethoxyethane"",""Type"":""PubChemInternalLink"",""Extra"":""CID-8071"",Color/Form is WATER-WHITELIQUID,Odor is SHARPETHEREALODOR,Boiling_Point is 185°Fat760mmHg(NTP,1992),Melting_Point is -72°F(NTP,1992),Flash_Point is 32°F(NTP,1992),Solubility is greaterthanorequalto100mg/mLat72°F(NTP,1992),Density is 0.868at68°F(USCG,1999)-Lessdensethanwater;willfloat"",""Markup"":[{""Start"":46,""Length"":5,""URL"":""https://pubchem.ncbi.nlm.nih.gov/compound/water"",""Type"":""PubChemInternalLink"",""Extra"":""CID-962"
1-(4-pyridyl)ethanone,CC(=O)c1ccncc1,-7.62,-7.566,"cid is 10909617,compound_name is (S)-sec-butylbenzene,cid_paras is 10909617,Molecular_Weight is 134.22,XLogP3 is 4.2,Hydrogen_Bond_Donor_Count is 0,Hydrogen_Bond_Acceptor_Count is 0,Rotatable_Bond_Count is 2,Exact_Mass is 134.109550447,Monoisotopic_Mass is 134.109550447,Topological_Polar_Surface_Area is 0,""Unit"":""Å²"",Heavy_Atom_Count is 10,Formal_Charge is 0,Complexity is 80,Isotope_Atom_Count is 0,Defined_Atom_Stereocenter_Count is 1,Undefined_Atom_Stereocenter_Count is 0,Defined_Bond_Stereocenter_Count is 0,Undefined_Bond_Stereocenter_Count is 0,Covalently_Bonded_Unit_Count is 1,Compound_Is_Canonicalized is Yes"
"1,2,3,4,7,8-hexachlorodibenzo-p-dioxin",c1c2c(cc(c1Cl)Cl)Oc3c(c(c(c(c3Cl)Cl)Cl)Cl)O2,-3.71,-1.878,"cid is 31234,compound_name is 3-Phenyl-1-propanol,cid_paras is 31234,Molecular_Weight is 136.19,XLogP3 is 1.9,Hydrogen_Bond_Donor_Count is 1,Hydrogen_Bond_Acceptor_Count is 1,Rotatable_Bond_Count is 3,Exact_Mass is 136.088815002,Monoisotopic_Mass is 136.088815002,Topological_Polar_Surface_Area is 20.2,""Unit"":""Å²"",Heavy_Atom_Count is 10,Formal_Charge is 0,Complexity is 74.8,Isotope_Atom_Count is 0,Defined_Atom_Stereocenter_Count is 0,Undefined_Atom_Stereocenter_Count is 0,Defined_Bond_Stereocenter_Count is 0,Undefined_Bond_Stereocenter_Count is 0,Covalently_Bonded_Unit_Count is 1,Compound_Is_Canonicalized is Yes,Physical_Description is Liquid,Color/Form is Colorlessliquid,Odor is Floralodor,Boiling_Point is 241°C,Melting_Point is <-18°C,Flash_Point is FlashPoint:212°F/100°C/closedcup,Solubility is Inwater,5,680mg/Lat25°C"",""Markup"":[{""Start"":3,""Length"":5,""URL"":""https://pubchem.ncbi.nlm.nih.gov/compound/water"",""Type"":""PubChemInternalLink"",""Extra"":""CID-962,Density is 0.995g/cucmat25°C"
acetone,CC(=O)C,-3.8,-3.506,"cid is 688400,compound_name is 2-[(2R)-butan-2-yl]-4,6-dinitrophenol,cid_paras is 688400,Molecular_Weight is 240.21,XLogP3 is 3.6,Hydrogen_Bond_Donor_Count is 1,Hydrogen_Bond_Acceptor_Count is 5,Rotatable_Bond_Count is 2,Exact_Mass is 240.07462149,Monoisotopic_Mass is 240.07462149,Topological_Polar_Surface_Area is 112,""Unit"":""Å²"",Heavy_Atom_Count is 17,Formal_Charge is 0,Complexity is 298,Isotope_Atom_Count is 0,Defined_Atom_Stereocenter_Count is 1,Undefined_Atom_Stereocenter_Count is 0,Defined_Bond_Stereocenter_Count is 0,Undefined_Bond_Stereocenter_Count is 0,Covalently_Bonded_Unit_Count is 1,Compound_Is_Canonicalized is Yes"
2-methylprop-1-ene,CC(=C)C,1.16,2.327,"cid is 8499,compound_name is Methyl 4-methoxybenzoate,cid_paras is 8499,Molecular_Weight is 166.17,XLogP3 is 2.3,Hydrogen_Bond_Donor_Count is 0,Hydrogen_Bond_Acceptor_Count is 3,Rotatable_Bond_Count is 3,Exact_Mass is 166.062994177,Monoisotopic_Mass is 166.062994177,Topological_Polar_Surface_Area is 35.5,""Unit"":""Å²"",Heavy_Atom_Count is 12,Formal_Charge is 0,Complexity is 148,Isotope_Atom_Count is 0,Defined_Atom_Stereocenter_Count is 0,Undefined_Atom_Stereocenter_Count is 0,Defined_Bond_Stereocenter_Count is 0,Undefined_Bond_Stereocenter_Count is 0,Covalently_Bonded_Unit_Count is 1,Compound_Is_Canonicalized is Yes,Physical_Description is Whitecrystallinesolid;[Sigma-AldrichMSDS],Boiling_Point is 244.00to245.00°C.@760.00mmHg,Melting_Point is 48°C,Solubility is 0.643mg/mLat20°C"
"1,2,3-trichloro-5-(2,5-dichlorophenyl)benzene",c1cc(c(cc1Cl)c2cc(c(c(c2)Cl)Cl)Cl)Cl,-3.61,-0.922,"cid is 4933,compound_name is Propanil,cid_paras is 4933,Molecular_Weight is 218.08,XLogP3 is 3.1,Hydrogen_Bond_Donor_Count is 1,Hydrogen_Bond_Acceptor_Count is 1,Rotatable_Bond_Count is 2,Exact_Mass is 217.0061193,Monoisotopic_Mass is 217.0061193,Topological_Polar_Surface_Area is 29.1,""Unit"":""Å²"",Heavy_Atom_Count is 13,Formal_Charge is 0,Complexity is 187,Isotope_Atom_Count is 0,Defined_Atom_Stereocenter_Count is 0,Undefined_Atom_Stereocenter_Count is 0,Defined_Bond_Stereocenter_Count is 0,Undefined_Bond_Stereocenter_Count is 0,Covalently_Bonded_Unit_Count is 1,Compound_Is_Canonicalized is Yes,Physical_Description is Propanilappearsascolorlesstobrowncrystals.Noncorrosive.Usedasanherbicide."",""Markup"":[{""Start"":0,""Length"":8,""URL"":""https://pubchem.ncbi.nlm.nih.gov/compound/Propanil"",""Type"":""PubChemInternalLink"",""Extra"":""CID-4933,Color/Form is Whitecrystallinesolid/Puritynotprovided/,Odor is Odorless,Boiling_Point is 351°C,Melting_Point is 92°C,Flash_Point is >100°C,Solubility is Solubilityinwateratroomtemperature:225ppm"",""Markup"":[{""Start"":14,""Length"":5,""URL"":""https://pubchem.ncbi.nlm.nih.gov/compound/water"",""Type"":""PubChemInternalLink"",""Extra"":""CID-962,Density is 1.25g/cucmat25°C"
1-nitropentane,CCCCC[N+](=O)[O-],-2.82,-1.325,"cid is 156391,compound_name is Naproxen,cid_paras is 156391,Molecular_Weight is 230.26,XLogP3 is 3.3,Hydrogen_Bond_Donor_Count is 1,Hydrogen_Bond_Acceptor_Count is 3,Rotatable_Bond_Count is 3,Exact_Mass is 230.094294304,Monoisotopic_Mass is 230.094294304,Topological_Polar_Surface_Area is 46.5,""Unit"":""Å²"",Heavy_Atom_Count is 17,Formal_Charge is 0,Complexity is 277,Isotope_Atom_Count is 0,Defined_Atom_Stereocenter_Count is 1,Undefined_Atom_Stereocenter_Count is 0,Defined_Bond_Stereocenter_Count is 0,Undefined_Bond_Stereocenter_Count is 0,Covalently_Bonded_Unit_Count is 1,Compound_Is_Canonicalized is Yes,Physical_Description is Solid,Color/Form is Crystalsfromacetone-hexane"",""Markup"":[{""Start"":14,""Length"":7,""URL"":""https://pubchem.ncbi.nlm.nih.gov/compound/acetone"",""Type"":""PubChemInternalLink"",""Extra"":""CID-180"",Odor is Practicallyodorless,Melting_Point is 152°C,Solubility is 15.9,""Unit"":""mg/L(at25°C)"""
(2E)-hex-2-enal,CCC/C=C/C=O,-3.68,-3.123,"cid is 10326,compound_name is Indan,cid_paras is 10326,Molecular_Weight is 118.18,XLogP3 is 3.2,Hydrogen_Bond_Donor_Count is 0,Hydrogen_Bond_Acceptor_Count is 0,Rotatable_Bond_Count is 0,Exact_Mass is 118.078250319,Monoisotopic_Mass is 118.078250319,Topological_Polar_Surface_Area is 0,""Unit"":""Å²"",Heavy_Atom_Count is 9,Formal_Charge is 0,Complexity is 84.2,Isotope_Atom_Count is 0,Defined_Atom_Stereocenter_Count is 0,Undefined_Atom_Stereocenter_Count is 0,Defined_Bond_Stereocenter_Count is 0,Undefined_Bond_Stereocenter_Count is 0,Covalently_Bonded_Unit_Count is 1,Compound_Is_Canonicalized is Yes,Physical_Description is Liquid;[MerckIndex]Clearlightyellowliquid;[Sigma-AldrichMSDS]"
"N,N-dimethyl-4-nitro-benzamide",CN(C)C(=O)c1ccc(cc1)[N+](=O)[O-],-11.95,-10.036,"cid is 31276,compound_name is Isoamyl acetate,cid_paras is 31276,Molecular_Weight is 130.18,XLogP3 is 2,Hydrogen_Bond_Donor_Count is 0,Hydrogen_Bond_Acceptor_Count is 2,Rotatable_Bond_Count is 4,Exact_Mass is 130.099379685,Monoisotopic_Mass is 130.099379685,Topological_Polar_Surface_Area is 26.3,""Unit"":""Å²"",Heavy_Atom_Count is 9,Formal_Charge is 0,Complexity is 86.9,Isotope_Atom_Count is 0,Defined_Atom_Stereocenter_Count is 0,Undefined_Atom_Stereocenter_Count is 0,Defined_Bond_Stereocenter_Count is 0,Undefined_Bond_Stereocenter_Count is 0,Covalently_Bonded_Unit_Count is 1,Compound_Is_Canonicalized is Yes,Physical_Description is Iso-amylacetateisanoilyliquid;colorless;bananaodor.Floatsandmixeswithwater.Flammable,irritatingvaporisproduced.(USCG,1999)"",""Markup"":[{""Start"":0,""Length"":16,""URL"":""https://pubchem.ncbi.nlm.nih.gov/compound/Iso-amyl%20acetate"",""Type"":""PubChemInternalLink"",""Extra"":""CID-31276"",Color/Form is Colorlessneutralliquid,Odor is Pear-likeodor,Boiling_Point is 288°Fat760mmHg(NTP,1992),Melting_Point is -109.3°F(NTP,1992),Flash_Point is 77°F(NTP,1992),Solubility is lessthan1mg/mLat66°F(NTP,1992),Density is 0.876at59°F(USCG,1999)-Lessdensethanwater;willfloat"",""Markup"":[{""Start"":46,""Length"":5,""URL"":""https://pubchem.ncbi.nlm.nih.gov/compound/water"",""Type"":""PubChemInternalLink"",""Extra"":""CID-962"
tetrahydrofuran,C1CCOC1,-3.47,-2.201,"cid is 10992,compound_name is 1-Chlorohexane,cid_paras is 10992,Molecular_Weight is 120.62,XLogP3 is 3.6,Hydrogen_Bond_Donor_Count is 0,Hydrogen_Bond_Acceptor_Count is 0,Rotatable_Bond_Count is 4,Exact_Mass is 120.0705781,Monoisotopic_Mass is 120.0705781,Topological_Polar_Surface_Area is 0,""Unit"":""Å²"",Heavy_Atom_Count is 7,Formal_Charge is 0,Complexity is 27.4,Isotope_Atom_Count is 0,Defined_Atom_Stereocenter_Count is 0,Undefined_Atom_Stereocenter_Count is 0,Defined_Bond_Stereocenter_Count is 0,Undefined_Bond_Stereocenter_Count is 0,Covalently_Bonded_Unit_Count is 1,Compound_Is_Canonicalized is Yes,Physical_Description is Mobil,clearliquid.,Flash_Point is 95°F(NFPA,2010)"