iupac,smiles,expt,calc,Description
2-methylbutan-1-ol,CC[C@@H](C)CO,-4.42,-2.995,"cid is 7368,compound_name is Benzotrifluoride,cid_paras is 7368,Molecular_Weight is 146.11,XLogP3 is 3,Hydrogen_Bond_Donor_Count is 0,Hydrogen_Bond_Acceptor_Count is 3,Rotatable_Bond_Count is 0,Exact_Mass is 146.03433465,Monoisotopic_Mass is 146.03433465,Topological_Polar_Surface_Area is 0,""Unit"":""Å²"",Heavy_Atom_Count is 10,Formal_Charge is 0,Complexity is 99.9,Isotope_Atom_Count is 0,Defined_Atom_Stereocenter_Count is 0,Undefined_Atom_Stereocenter_Count is 0,Defined_Bond_Stereocenter_Count is 0,Undefined_Bond_Stereocenter_Count is 0,Covalently_Bonded_Unit_Count is 1,Compound_Is_Canonicalized is Yes,Physical_Description is Benzotrifluorideappearsasaclearcolorlessliquidwithanaromaticodor.Flashpointof54°F.Vaporsareheavierthanair.Insolubleinwaterandslightlydenserthanwater.Maybetoxicbyinhalation."",""Markup"":[{""Start"":0,""Length"":16,""URL"":""https://pubchem.ncbi.nlm.nih.gov/compound/Benzotrifluoride"",""Type"":""PubChemInternalLink"",""Extra"":""CID-7368"",Color/Form is WATERWHITELIQUID,Odor is AROMATICODOR,Boiling_Point is 208to210°Fat760mmHg(NTP,1992),Melting_Point is -20.4°F(NTP,1992),Flash_Point is 54°F(NTP,1992),Solubility is lessthan1mg/mLat70°F(NTP,1992),Density is 1.1812at77°F(NTP,1992)-Denserthanwater;willsink"",""Markup"":[{""Start"":42,""Length"":5,""URL"":""https://pubchem.ncbi.nlm.nih.gov/compound/water"",""Type"":""PubChemInternalLink"",""Extra"":""CID-962"
2-iodophenol,c1ccc(c(c1)O)I,-6.2,-3.221,"cid is 9321,compound_name is Hydrazine,cid_paras is 9321,Molecular_Weight is 32.046,XLogP3 is -1.5,Hydrogen_Bond_Donor_Count is 2,Hydrogen_Bond_Acceptor_Count is 2,Rotatable_Bond_Count is 0,Exact_Mass is 32.037448136,Monoisotopic_Mass is 32.037448136,Topological_Polar_Surface_Area is 52,""Unit"":""Å²"",Heavy_Atom_Count is 2,Formal_Charge is 0,Complexity is 0,Isotope_Atom_Count is 0,Defined_Atom_Stereocenter_Count is 0,Undefined_Atom_Stereocenter_Count is 0,Defined_Bond_Stereocenter_Count is 0,Undefined_Bond_Stereocenter_Count is 0,Covalently_Bonded_Unit_Count is 1,Compound_Is_Canonicalized is Yes,Physical_Description is Hydrazine,anhydrousappearsasacolorless,fumingoilyliquidwithanammonia-likeodor.Flashpoint99°F.Explodesduringdistillationiftracesofairarepresent.Toxicbyinhalationandbyskinabsorption.Corrosivetotissue.Producestoxicoxidesofnitrogenduringcombustion.Usedasarocketpropellantandinfuelcells."",""Markup"":[{""Start"":0,""Length"":9,""URL"":""https://pubchem.ncbi.nlm.nih.gov/compound/Hydrazine"",""Type"":""PubChemInternalLink"",""Extra"":""CID-9321"",Color/Form is Colorlessoilyliquid,Odor is Penetratingodorresemblingammonia."",""Markup"":[{""Start"":28,""Length"":7,""URL"":""https://pubchem.ncbi.nlm.nih.gov/compound/ammonia"",""Type"":""PubChemInternalLink"",""Extra"":""CID-222,Boiling_Point is 236.3°Fat760mmHg(EPA,1998),Melting_Point is 36°F(EPA,1998),Flash_Point is 125.6°F(EPA,1998),Solubility is Miscible(NIOSH,2024),Density is 1.011at59°F(EPA,1998)-Denserthanwater;willsink"",""Markup"":[{""Start"":41,""Length"":5,""URL"":""https://pubchem.ncbi.nlm.nih.gov/compound/water"",""Type"":""PubChemInternalLink"",""Extra"":""CID-962"
"2,6-dimethoxyphenol",COc1cccc(c1O)OC,-6.96,-7.393,"cid is 7975,compound_name is 2-Methylpyridine,cid_paras is 7975,Molecular_Weight is 93.13,XLogP3 is 1.1,Hydrogen_Bond_Donor_Count is 0,Hydrogen_Bond_Acceptor_Count is 1,Rotatable_Bond_Count is 0,Exact_Mass is 93.057849228,Monoisotopic_Mass is 93.057849228,Topological_Polar_Surface_Area is 12.9,""Unit"":""Å²"",Heavy_Atom_Count is 7,Formal_Charge is 0,Complexity is 52.1,Isotope_Atom_Count is 0,Defined_Atom_Stereocenter_Count is 0,Undefined_Atom_Stereocenter_Count is 0,Defined_Bond_Stereocenter_Count is 0,Undefined_Bond_Stereocenter_Count is 0,Covalently_Bonded_Unit_Count is 1,Compound_Is_Canonicalized is Yes,Physical_Description is 2-methylpyridineisacolorlessliquidwithastrong,unpleasantodor.Floatsonwater.Poisonousvaporisproduced.(USCG,1999)"",""Markup"":[{""Start"":0,""Length"":16,""URL"":""https://pubchem.ncbi.nlm.nih.gov/compound/2-methylpyridine"",""Type"":""PubChemInternalLink"",""Extra"":""CID-7975"",Color/Form is Colorlessliquid,Odor is Strongunpleasantodor,Boiling_Point is 262to264°Fat760mmHg(NTP,1992),Melting_Point is -94°F(NTP,1992),Flash_Point is 97°F(NTP,1992),Solubility is greaterthanorequalto100mg/mLat68°F(NTP,1992),Density is 0.944at68°F(USCG,1999)-Lessdensethanwater;willfloat"",""Markup"":[{""Start"":46,""Length"":5,""URL"":""https://pubchem.ncbi.nlm.nih.gov/compound/water"",""Type"":""PubChemInternalLink"",""Extra"":""CID-962"
but-1-yne,CCC#C,-0.16,0.284,"cid is 10326,compound_name is Indan,cid_paras is 10326,Molecular_Weight is 118.18,XLogP3 is 3.2,Hydrogen_Bond_Donor_Count is 0,Hydrogen_Bond_Acceptor_Count is 0,Rotatable_Bond_Count is 0,Exact_Mass is 118.078250319,Monoisotopic_Mass is 118.078250319,Topological_Polar_Surface_Area is 0,""Unit"":""Å²"",Heavy_Atom_Count is 9,Formal_Charge is 0,Complexity is 84.2,Isotope_Atom_Count is 0,Defined_Atom_Stereocenter_Count is 0,Undefined_Atom_Stereocenter_Count is 0,Defined_Bond_Stereocenter_Count is 0,Undefined_Bond_Stereocenter_Count is 0,Covalently_Bonded_Unit_Count is 1,Compound_Is_Canonicalized is Yes,Physical_Description is Liquid;[MerckIndex]Clearlightyellowliquid;[Sigma-AldrichMSDS]"
trifluoromethylbenzene,c1ccc(cc1)C(F)(F)F,-0.25,-0.57,"cid is 34586,compound_name is 2,3-Dichlorodibenzo-P-dioxin,cid_paras is 34586,Molecular_Weight is 253.08,XLogP3 is 5.2,Hydrogen_Bond_Donor_Count is 0,Hydrogen_Bond_Acceptor_Count is 2,Rotatable_Bond_Count is 0,Exact_Mass is 251.9744848,Monoisotopic_Mass is 251.9744848,Topological_Polar_Surface_Area is 18.5,""Unit"":""Å²"",Heavy_Atom_Count is 16,Formal_Charge is 0,Complexity is 235,Isotope_Atom_Count is 0,Defined_Atom_Stereocenter_Count is 0,Undefined_Atom_Stereocenter_Count is 0,Defined_Bond_Stereocenter_Count is 0,Undefined_Bond_Stereocenter_Count is 0,Covalently_Bonded_Unit_Count is 1,Compound_Is_Canonicalized is Yes"
hydrazine,NN,-9.3,-6.508,"cid is 8143,compound_name is Octylamine,cid_paras is 8143,Molecular_Weight is 129.24,XLogP3 is 3.1,Hydrogen_Bond_Donor_Count is 1,Hydrogen_Bond_Acceptor_Count is 1,Rotatable_Bond_Count is 6,Exact_Mass is 129.151749610,Monoisotopic_Mass is 129.151749610,Topological_Polar_Surface_Area is 26,""Unit"":""Å²"",Heavy_Atom_Count is 9,Formal_Charge is 0,Complexity is 43.8,Isotope_Atom_Count is 0,Defined_Atom_Stereocenter_Count is 0,Undefined_Atom_Stereocenter_Count is 0,Defined_Bond_Stereocenter_Count is 0,Undefined_Bond_Stereocenter_Count is 0,Covalently_Bonded_Unit_Count is 1,Compound_Is_Canonicalized is Yes,Physical_Description is Octanamineappearsasayellowliquidwithanammonia-likeodor.Insolubleinwaterandlessdensethanwater.Hencefloatsonwater.Contactmayirritateskin,eyesandmucousmembranes.Maybetoxicbyingestion.Usedtomakeotherchemicals."",""Markup"":[{""Start"":0,""Length"":10,""URL"":""https://pubchem.ncbi.nlm.nih.gov/compound/Octanamine"",""Type"":""PubChemInternalLink"",""Extra"":""CID-8143"""
2-methylpyridine,Cc1ccccn1,-4.63,-3.501,"cid is 222,compound_name is Ammonia,cid_paras is 222,Molecular_Weight is 17.031,XLogP3 is -0.7,Hydrogen_Bond_Donor_Count is 1,Hydrogen_Bond_Acceptor_Count is 1,Rotatable_Bond_Count is 0,Exact_Mass is 17.026549100,Monoisotopic_Mass is 17.026549100,Topological_Polar_Surface_Area is 1,""Unit"":""Å²"",Heavy_Atom_Count is 1,Formal_Charge is 0,Complexity is 0,Isotope_Atom_Count is 0,Defined_Atom_Stereocenter_Count is 0,Undefined_Atom_Stereocenter_Count is 0,Defined_Bond_Stereocenter_Count is 0,Undefined_Bond_Stereocenter_Count is 0,Covalently_Bonded_Unit_Count is 1,Compound_Is_Canonicalized is Yes,Physical_Description is Ammoniasolutions(containingmorethan35%butnotmorethan50%ammonia)appearsasaclearcolorlessliquidconsistingofammoniadissolvedinwater.Corrosivetotissueandmetals.Althoughammoniaislighterthanair,thevaporsfromaleakwillinitiallyhugtheground.Longtermexposuretolowconcentrationsorshorttermexposuretohighconcentrationsmayresultinadversehealthconditionsfrominhalation.Prolongedexposureofcontainerstofireorheatmayresultintheirviolentrupturingandrocketing."",""Markup"":[{""Start"":0,""Length"":7,""URL"":""https://pubchem.ncbi.nlm.nih.gov/compound/Ammonia"",""Type"":""PubChemInternalLink"",""Extra"":""CID-222"",Color/Form is Colorlessgas,Odor is Sharp,cloying,repellent,Boiling_Point is -28.03°Fat760mmHg(EPA,1998),Melting_Point is -107.9°F(EPA,1998),Flash_Point is 132°C(270°F)-closedcup,Solubility is 34%(NIOSH,2024),Density is 0.6818at-28.03°F(EPA,1998)-Lessdensethanwater;willfloat"",""Markup"":[{""Start"":50,""Length"":5,""URL"":""https://pubchem.ncbi.nlm.nih.gov/compound/water"",""Type"":""PubChemInternalLink"",""Extra"":""CID-962"
simazine,CCNc1nc(nc(n1)Cl)NCC,-10.22,-10.914,"cid is 9818,compound_name is 1,2-Bis(trifluoromethyl)benzene,cid_paras is 9818,Molecular_Weight is 214.11,XLogP3 is 3.7,Hydrogen_Bond_Donor_Count is 0,Hydrogen_Bond_Acceptor_Count is 6,Rotatable_Bond_Count is 0,Exact_Mass is 214.02171910,Monoisotopic_Mass is 214.02171910,Topological_Polar_Surface_Area is 0,""Unit"":""Å²"",Heavy_Atom_Count is 14,Formal_Charge is 0,Complexity is 169,Isotope_Atom_Count is 0,Defined_Atom_Stereocenter_Count is 0,Undefined_Atom_Stereocenter_Count is 0,Defined_Bond_Stereocenter_Count is 0,Undefined_Bond_Stereocenter_Count is 0,Covalently_Bonded_Unit_Count is 1,Compound_Is_Canonicalized is Yes"
"2,3-dichlorodibenzo-p-dioxin",c1ccc2c(c1)Oc3cc(c(cc3O2)Cl)Cl,-3.56,-3.59,"cid is 7456,compound_name is Methylparaben,cid_paras is 7456,Molecular_Weight is 152.15,XLogP3 is 2,Hydrogen_Bond_Donor_Count is 1,Hydrogen_Bond_Acceptor_Count is 3,Rotatable_Bond_Count is 2,Exact_Mass is 152.047344113,Monoisotopic_Mass is 152.047344113,Topological_Polar_Surface_Area is 46.5,""Unit"":""Å²"",Heavy_Atom_Count is 11,Formal_Charge is 0,Complexity is 136,Isotope_Atom_Count is 0,Defined_Atom_Stereocenter_Count is 0,Undefined_Atom_Stereocenter_Count is 0,Defined_Bond_Stereocenter_Count is 0,Undefined_Bond_Stereocenter_Count is 0,Covalently_Bonded_Unit_Count is 1,Compound_Is_Canonicalized is Yes,Physical_Description is DryPowder,Color/Form is Whiteneedles,Odor is Odorlessorhasfaintcharacteristicodor,Boiling_Point is 270.5°C(decomposes),Melting_Point is ofp-hydroxybenzoicacidderivedfromthesampleis213°Cto217°Cafterdryingfortwohoursat80°C"",""Markup"":[{""Start"":4,""Length"":19,""URL"":""https://pubchem.ncbi.nlm.nih.gov/compound/hydroxybenzoic%20acid"",""Type"":""PubChemInternalLink"",""Extra"":""multiple-CIDs,Solubility is Inwater,2.50X10+3mg/Lat25°C"",""Markup"":[{""Start"":3,""Length"":5,""URL"":""https://pubchem.ncbi.nlm.nih.gov/compound/water"",""Type"":""PubChemInternalLink"",""Extra"":""CID-962"
octan-1-amine,CCCCCCCCN,-3.65,-2.589,"cid is 10864,compound_name is Pentylbenzene,cid_paras is 10864,Molecular_Weight is 148.24,XLogP3 is 5,Hydrogen_Bond_Donor_Count is 0,Hydrogen_Bond_Acceptor_Count is 0,Rotatable_Bond_Count is 4,Exact_Mass is 148.125200510,Monoisotopic_Mass is 148.125200510,Topological_Polar_Surface_Area is 0,""Unit"":""Å²"",Heavy_Atom_Count is 11,Formal_Charge is 0,Complexity is 80,Isotope_Atom_Count is 0,Defined_Atom_Stereocenter_Count is 0,Undefined_Atom_Stereocenter_Count is 0,Defined_Bond_Stereocenter_Count is 0,Undefined_Bond_Stereocenter_Count is 0,Covalently_Bonded_Unit_Count is 1,Compound_Is_Canonicalized is Yes,Physical_Description is Liquid;[MerckIndex]Clearcolorlessliquid;[Sigma-AldrichMSDS]"
ammonia,N,-4.29,-4.018,"cid is 6368,compound_name is 1,1-Difluoroethane,cid_paras is 6368,Molecular_Weight is 66.05,XLogP3 is 1.4,Hydrogen_Bond_Donor_Count is 0,Hydrogen_Bond_Acceptor_Count is 2,Rotatable_Bond_Count is 0,Exact_Mass is 66.02810645,Monoisotopic_Mass is 66.02810645,Topological_Polar_Surface_Area is 0,""Unit"":""Å²"",Heavy_Atom_Count is 4,Formal_Charge is 0,Complexity is 11.5,Isotope_Atom_Count is 0,Defined_Atom_Stereocenter_Count is 0,Undefined_Atom_Stereocenter_Count is 0,Defined_Bond_Stereocenter_Count is 0,Undefined_Bond_Stereocenter_Count is 0,Covalently_Bonded_Unit_Count is 1,Compound_Is_Canonicalized is Yes,Physical_Description is 1,1-Difluoroethaneiscolorless,odorlessgasshippedasaliquefiedgasunderitsvaporpressure.Contactwiththeliquidcancausefrostbite.Itiseasilyignited.Itsvaporsareheavierthanairandaflamecantravelbacktothesourceofleakveryeasily.Thisleakcanbeeitheraliquidorvaporleak.Itcanasphyxiatebythedisplacementofair.Underprolongedexposuretofireorheatthecontainersmayruptureviolentlyandrocket."",""Markup"":[{""Start"":0,""Length"":18,""URL"":""https://pubchem.ncbi.nlm.nih.gov/compound/1%2C1-Difluoroethane"",""Type"":""PubChemInternalLink"",""Extra"":""CID-6368,Color/Form is Colorlessgas,Odor is Odorless,Boiling_Point is 52.3°Fat760mmHg(USCG,1999),Melting_Point is -179°F(USCG,1999),Flash_Point is <-50°C(opencup),Solubility is Inwater,3.2X10+3mg/Lat25°C"",""Markup"":[{""Start"":3,""Length"":5,""URL"":""https://pubchem.ncbi.nlm.nih.gov/compound/water"",""Type"":""PubChemInternalLink"",""Extra"":""CID-962,Density is 0.95at68°F(USCG,1999)-Lessdensethanwater;willfloat"",""Markup"":[{""Start"":45,""Length"":5,""URL"":""https://pubchem.ncbi.nlm.nih.gov/compound/water"",""Type"":""PubChemInternalLink"",""Extra"":""CID-962"
"1,2-bis(trifluoromethyl)benzene",c1ccc(c(c1)C(F)(F)F)C(F)(F)F,1.07,-1.441,"cid is 15546,compound_name is Chloridazon,cid_paras is 15546,Molecular_Weight is 221.64,XLogP3 is 0.8,Hydrogen_Bond_Donor_Count is 1,Hydrogen_Bond_Acceptor_Count is 3,Rotatable_Bond_Count is 1,Exact_Mass is 221.0355896,Monoisotopic_Mass is 221.0355896,Topological_Polar_Surface_Area is 58.7,""Unit"":""Å²"",Heavy_Atom_Count is 15,Formal_Charge is 0,Complexity is 332,Isotope_Atom_Count is 0,Defined_Atom_Stereocenter_Count is 0,Undefined_Atom_Stereocenter_Count is 0,Defined_Bond_Stereocenter_Count is 0,Undefined_Bond_Stereocenter_Count is 0,Covalently_Bonded_Unit_Count is 1,Compound_Is_Canonicalized is Yes,Physical_Description is Colorlessodorlesssolid;[HSDB],Color/Form is Colorlesssolid,Odor is Odorless,Melting_Point is 206°C,Solubility is 25.5[ug/mL](ThemeanoftheresultsatpH7.4),Density is 1.54g/cucmat20°C"
methyl paraben,COC(=O)c1ccc(cc1)O,-9.51,-9.785,"cid is 7845,compound_name is 1,3-Butadiene,cid_paras is 7845,Molecular_Weight is 54.09,XLogP3 is 2,Hydrogen_Bond_Donor_Count is 0,Hydrogen_Bond_Acceptor_Count is 0,Rotatable_Bond_Count is 1,Exact_Mass is 54.0469501914,Monoisotopic_Mass is 54.0469501914,Topological_Polar_Surface_Area is 0,""Unit"":""Å²"",Heavy_Atom_Count is 4,Formal_Charge is 0,Complexity is 21,Isotope_Atom_Count is 0,Defined_Atom_Stereocenter_Count is 0,Undefined_Atom_Stereocenter_Count is 0,Defined_Bond_Stereocenter_Count is 0,Undefined_Bond_Stereocenter_Count is 0,Covalently_Bonded_Unit_Count is 1,Compound_Is_Canonicalized is Yes,Physical_Description is Butadieneisacolorlessgaswithanaromaticodor.Itisshippedasaliquefiedgasunderitsvaporpressure.Contactwiththeliquidcancausefrostbite.Itiseasilyignited.Itsvaporsareheavierthanairandaflamecanflashbacktothesourceofleakveryeasily.Itcanasphyxiatebythedisplacementofair.Itmustbeshippedinhibitedasbutadieneisliabletopolymerization.Ifpolymerizationoccursinthecontainer,itmayviolentlyrupture.Underprolongedexposuretofireorintenseheatthecontainersmayruptureviolentlyandrocket.Itisusedtomakesyntheticrubberandplastics,andtomakeotherchemicals."",""Markup"":[{""Start"":0,""Length"":9,""URL"":""https://pubchem.ncbi.nlm.nih.gov/compound/Butadiene"",""Type"":""PubChemInternalLink"",""Extra"":""CID-7845"",Color/Form is Colorlessgas...[Note:Aliquidbelow24degreesF.Shippedasaliquefiedcompressedgas],Odor is MIldlyaromaticodor,Boiling_Point is 24.1°Fat760mmHg(NTP,1992),Melting_Point is -164°F(NTP,1992),Flash_Point is -105°F(NTP,1992),Solubility is Insoluble(NTP,1992),Density is 0.621at68°F(USCG,1999)-Lessdensethanwater;willfloat"",""Markup"":[{""Start"":46,""Length"":5,""URL"":""https://pubchem.ncbi.nlm.nih.gov/compound/water"",""Type"":""PubChemInternalLink"",""Extra"":""CID-962"
pentylbenzene,CCCCCc1ccccc1,-0.23,-0.094,"cid is 1146,compound_name is Trimethylamine,cid_paras is 1146,Molecular_Weight is 59.11,XLogP3 is 0.3,Hydrogen_Bond_Donor_Count is 0,Hydrogen_Bond_Acceptor_Count is 1,Rotatable_Bond_Count is 0,Exact_Mass is 59.073499291,Monoisotopic_Mass is 59.073499291,Topological_Polar_Surface_Area is 3.2,""Unit"":""Å²"",Heavy_Atom_Count is 4,Formal_Charge is 0,Complexity is 8,Isotope_Atom_Count is 0,Defined_Atom_Stereocenter_Count is 0,Undefined_Atom_Stereocenter_Count is 0,Defined_Bond_Stereocenter_Count is 0,Undefined_Bond_Stereocenter_Count is 0,Covalently_Bonded_Unit_Count is 1,Compound_Is_Canonicalized is Yes,Physical_Description is Trimethylamine,anhydrousappearsasacolorlessgaswithafishlikeodoratlowconcentrationschangingtoammonia-likeodorathigherconcentrations.Shippedasaliquidunderitsownvaporpressure.Contactwiththeunconfinedliquidcancausefrostbitefromevaporativecoolingorchemicaltypeburns.Thegasiscorrosiveanddissolvesinwatertoformflammable,corrosivesolutions.Gasisanasphyxiatebythedisplacementofair.Producestoxicoxidesofnitrogenduringcombustion.Prolongedexposuretoheatcancausethecontainerstoruptureviolentlyandrocket.Long-terminhalationoflowconcentrationsorshort-terminhalationofhighconcentrationshasadversehealtheffects."",""Markup"":[{""Start"":0,""Length"":14,""URL"":""https://pubchem.ncbi.nlm.nih.gov/compound/Trimethylamine"",""Type"":""PubChemInternalLink"",""Extra"":""CID-1146"",Color/Form is Colorlessgasatroomtemperature,Odor is Pungent,fishy,ammoniacal,Boiling_Point is 37.2°Fat760mmHg(USCG,1999),Melting_Point is -178.8°F(USCG,1999),Flash_Point is NotApplicable.Gas.(USCG,1999),Solubility is 48%at86°F(NIOSH,2024),Density is 0.633at68°F(USCG,1999)-Lessdensethanwater;willfloat"",""Markup"":[{""Start"":46,""Length"":5,""URL"":""https://pubchem.ncbi.nlm.nih.gov/compound/water"",""Type"":""PubChemInternalLink"",""Extra"":""CID-962"
"1,1-difluoroethane",CC(F)F,-0.11,0.226,"cid is 12332,compound_name is Hexanamide,cid_paras is 12332,Molecular_Weight is 115.17,XLogP3 is 1.3,Hydrogen_Bond_Donor_Count is 1,Hydrogen_Bond_Acceptor_Count is 1,Rotatable_Bond_Count is 4,Exact_Mass is 115.099714038,Monoisotopic_Mass is 115.099714038,Topological_Polar_Surface_Area is 43.1,""Unit"":""Å²"",Heavy_Atom_Count is 8,Formal_Charge is 0,Complexity is 70.9,Isotope_Atom_Count is 0,Defined_Atom_Stereocenter_Count is 0,Undefined_Atom_Stereocenter_Count is 0,Defined_Bond_Stereocenter_Count is 0,Undefined_Bond_Stereocenter_Count is 0,Covalently_Bonded_Unit_Count is 1,Compound_Is_Canonicalized is Yes,Physical_Description is Hexanamideappearsascolorlesscrystals.(NTP,1992)"",""Markup"":[{""Start"":0,""Length"":10,""URL"":""https://pubchem.ncbi.nlm.nih.gov/compound/Hexanamide"",""Type"":""PubChemInternalLink"",""Extra"":""CID-12332,Color/Form is CRYSTALSFROMACETONE,Boiling_Point is 491°Fat760mmHg(NTP,1992),Melting_Point is 214°F(NTP,1992),Solubility is 0.1to1mg/mLat59°F(NTP,1992),Density is 0.999at68°F(NTP,1992)-Lessdensethanwater;willfloat"",""Markup"":[{""Start"":45,""Length"":5,""URL"":""https://pubchem.ncbi.nlm.nih.gov/compound/water"",""Type"":""PubChemInternalLink"",""Extra"":""CID-962"
5-Amino-4-chloro-2-phenylpyridazin-3(2H)-one,c1ccc(cc1)n2c(=O)c(c(cn2)N)Cl,-16.43,-16.039,"cid is 10974,compound_name is Isobutyl nitrate,cid_paras is 10974,Molecular_Weight is 119.12,XLogP3 is 1.8,Hydrogen_Bond_Donor_Count is 0,Hydrogen_Bond_Acceptor_Count is 3,Rotatable_Bond_Count is 2,Exact_Mass is 119.058243149,Monoisotopic_Mass is 119.058243149,Topological_Polar_Surface_Area is 55,""Unit"":""Å²"",Heavy_Atom_Count is 8,Formal_Charge is 0,Complexity is 75.8,Isotope_Atom_Count is 0,Defined_Atom_Stereocenter_Count is 0,Undefined_Atom_Stereocenter_Count is 0,Defined_Bond_Stereocenter_Count is 0,Undefined_Bond_Stereocenter_Count is 0,Covalently_Bonded_Unit_Count is 1,Compound_Is_Canonicalized is Yes"