iupac,smiles,expt,calc,Description
"1,3,5-trichloro-2-phenyl-benzene",c1ccc(cc1)c2c(cc(cc2Cl)Cl)Cl,-2.16,-1.151,"cid is 8091,compound_name is Methyl octanoate,cid_paras is 8091,Molecular_Weight is 158.24,XLogP3 is 3.6,Hydrogen_Bond_Donor_Count is 0,Hydrogen_Bond_Acceptor_Count is 2,Rotatable_Bond_Count is 7,Exact_Mass is 158.130679813,Monoisotopic_Mass is 158.130679813,Topological_Polar_Surface_Area is 26.3,""Unit"":""Å²"",Heavy_Atom_Count is 11,Formal_Charge is 0,Complexity is 99.7,Isotope_Atom_Count is 0,Defined_Atom_Stereocenter_Count is 0,Undefined_Atom_Stereocenter_Count is 0,Defined_Bond_Stereocenter_Count is 0,Undefined_Bond_Stereocenter_Count is 0,Covalently_Bonded_Unit_Count is 1,Compound_Is_Canonicalized is Yes,Physical_Description is Methyloctanoateappearsasacolorlessliquid.Insolubleinwaterandaboutthesamedensityaswater.Usedtomakeotherchemicals."",""Markup"":[{""Start"":0,""Length"":16,""URL"":""https://pubchem.ncbi.nlm.nih.gov/compound/Methyl%20octanoate"",""Type"":""PubChemInternalLink"",""Extra"":""CID-8091"",Color/Form is COLORLESS,OILYLIQUID,Odor is POWERFUL,WINEY,FRUITY,ANDORANGE-LIKEODOR,Boiling_Point is 192.9°C@760mmHg,Melting_Point is -40°C,Solubility is Insolubleinwater;verysolubleinalcohol,ether"",""Markup"":[{""Start"":13,""Length"":5,""URL"":""https://pubchem.ncbi.nlm.nih.gov/compound/water"",""Type"":""PubChemInternalLink"",""Extra"":""CID-962,Density is 0.8775@20°C/4°C"
methanamine,CN,-4.55,-3.583,"cid is 31268,compound_name is Pyrrolidine,cid_paras is 31268,Molecular_Weight is 71.12,XLogP3 is 0.5,Hydrogen_Bond_Donor_Count is 1,Hydrogen_Bond_Acceptor_Count is 1,Rotatable_Bond_Count is 0,Exact_Mass is 71.073499291,Monoisotopic_Mass is 71.073499291,Topological_Polar_Surface_Area is 12,""Unit"":""Å²"",Heavy_Atom_Count is 5,Formal_Charge is 0,Complexity is 22.8,Isotope_Atom_Count is 0,Defined_Atom_Stereocenter_Count is 0,Undefined_Atom_Stereocenter_Count is 0,Defined_Bond_Stereocenter_Count is 0,Undefined_Bond_Stereocenter_Count is 0,Covalently_Bonded_Unit_Count is 1,Compound_Is_Canonicalized is Yes,Physical_Description is Pyrrolidineappearsasacolorlesstopaleyellowliquidwithanammonia-likeodor.Vaporsheavierthanair.Producestoxicoxidesofnitrogenduringcombustion."",""Markup"":[{""Start"":0,""Length"":11,""URL"":""https://pubchem.ncbi.nlm.nih.gov/compound/Pyrrolidine"",""Type"":""PubChemInternalLink"",""Extra"":""CID-31268"",Color/Form is Colorlesstopaleyellowliq,Odor is Unpleasant,ammoniacalodor,Boiling_Point is 86.56°C,Melting_Point is -57.79°C,Flash_Point is 37°F(NFPA,2010),Solubility is Solubleinethanol,ethylether;slightlysolubleinbenzene,chloroform"",""Markup"":[{""Start"":11,""Length"":7,""URL"":""https://pubchem.ncbi.nlm.nih.gov/compound/ethanol"",""Type"":""PubChemInternalLink"",""Extra"":""CID-702"",Density is 0.8520at22.5°C/4°C"
2-chlorophenol,c1ccc(c(c1)O)Cl,-4.55,-3.317,"cid is 126,compound_name is 4-Hydroxybenzaldehyde,cid_paras is 126,Molecular_Weight is 122.12,XLogP3 is 1.4,Hydrogen_Bond_Donor_Count is 1,Hydrogen_Bond_Acceptor_Count is 2,Rotatable_Bond_Count is 1,Exact_Mass is 122.036779430,Monoisotopic_Mass is 122.036779430,Topological_Polar_Surface_Area is 37.3,""Unit"":""Å²"",Heavy_Atom_Count is 9,Formal_Charge is 0,Complexity is 93.1,Isotope_Atom_Count is 0,Defined_Atom_Stereocenter_Count is 0,Undefined_Atom_Stereocenter_Count is 0,Defined_Bond_Stereocenter_Count is 0,Undefined_Bond_Stereocenter_Count is 0,Covalently_Bonded_Unit_Count is 1,Compound_Is_Canonicalized is Yes,Physical_Description is Solid;Sublimesatatmosphericpressurewithoutdecomposition;[MerckIndex]Lightbrowncrystallinesolid;[AldrichMSDS],Boiling_Point is 310,""Unit"":""°C"",Melting_Point is 117,""Unit"":""°C"",Solubility is 8450,""Unit"":""mg/L(at25°C)"""
"2-amino-9,10-anthraquinone",c1ccc2c(c1)C(=O)c3ccc(cc3C2=O)N,-11.53,-13.895,"cid is 12371,compound_name is 1-Chloroheptane,cid_paras is 12371,Molecular_Weight is 134.65,XLogP3 is 4.2,Hydrogen_Bond_Donor_Count is 0,Hydrogen_Bond_Acceptor_Count is 0,Rotatable_Bond_Count is 5,Exact_Mass is 134.0862282,Monoisotopic_Mass is 134.0862282,Topological_Polar_Surface_Area is 0,""Unit"":""Å²"",Heavy_Atom_Count is 8,Formal_Charge is 0,Complexity is 35.4,Isotope_Atom_Count is 0,Defined_Atom_Stereocenter_Count is 0,Undefined_Atom_Stereocenter_Count is 0,Defined_Bond_Stereocenter_Count is 0,Undefined_Bond_Stereocenter_Count is 0,Covalently_Bonded_Unit_Count is 1,Compound_Is_Canonicalized is Yes,Physical_Description is 1-chloroheptaneisacolorlessliquid.Insolubleinwater."",""Markup"":[{""Start"":0,""Length"":15,""URL"":""https://pubchem.ncbi.nlm.nih.gov/compound/1-chloroheptane"",""Type"":""PubChemInternalLink"",""Extra"":""CID-12371"""
"(Z)-1,2-dichloroethylene",C(=C\Cl)\Cl,-1.17,1.156,"cid is 31275,compound_name is 1,4-Dioxane,cid_paras is 31275,Molecular_Weight is 88.11,XLogP3 is -0.3,Hydrogen_Bond_Donor_Count is 0,Hydrogen_Bond_Acceptor_Count is 2,Rotatable_Bond_Count is 0,Exact_Mass is 88.052429494,Monoisotopic_Mass is 88.052429494,Topological_Polar_Surface_Area is 18.5,""Unit"":""Å²"",Heavy_Atom_Count is 6,Formal_Charge is 0,Complexity is 26.5,Isotope_Atom_Count is 0,Defined_Atom_Stereocenter_Count is 0,Undefined_Atom_Stereocenter_Count is 0,Defined_Bond_Stereocenter_Count is 0,Undefined_Bond_Stereocenter_Count is 0,Covalently_Bonded_Unit_Count is 1,Compound_Is_Canonicalized is Yes,Physical_Description is Dioxaneappearsasaclearcolorlessliquidwithafaintetherealodor.Flashpoint55°F.Slightlydenserthanwaterandsolubleinwater.Vaporsheavierthanair.Susceptibletoautooxidationtoformperoxides."",""Markup"":[{""Start"":0,""Length"":7,""URL"":""https://pubchem.ncbi.nlm.nih.gov/compound/Dioxane"",""Type"":""PubChemInternalLink"",""Extra"":""CID-122652514"",Color/Form is Colorlessliquidorsolid(below53degreesF),Odor is Faintpleasantodor,Boiling_Point is 214°Fat760mmHg(NTP,1992),Melting_Point is 53.2°F(NTP,1992),Flash_Point is 54°F(NTP,1992),Solubility is greaterthanorequalto100mg/mLat68°F(NTP,1992),Density is 1.036at68°F(USCG,1999)-Denserthanwater;willsink"",""Markup"":[{""Start"":42,""Length"":5,""URL"":""https://pubchem.ncbi.nlm.nih.gov/compound/water"",""Type"":""PubChemInternalLink"",""Extra"":""CID-962"
hexan-2-one,CCCCC(=O)C,-3.28,-3.006,
"1,2-dinitroxyethane",C(CO[N+](=O)[O-])O[N+](=O)[O-],-5.73,-6.227,
2-fluorophenol,c1ccc(c(c1)O)F,-5.29,-3.346,
pirimor,Cc1c(nc(nc1OC(=O)N(C)C)N(C)C)C,-9.41,-13.87,
styrene,C=Cc1ccccc1,-1.24,-1.078,
triethylphosphate,CCOP(=O)(OCC)OCC,-7.5,-10.251,
"2,2,2-trifluoroethanol",C(C(F)(F)F)O,-4.31,-3.809,
1-butoxy-2-propanol,CCCCOC[C@H](C)O,-5.73,-3.891,
propan-1-ol,CCCO,-4.85,-3.33,
o-xylene,Cc1ccccc1C,-0.9,-0.851,
neopentane,CC(C)(C)C,2.51,2.506,
pent-1-yne,CCCC#C,0.01,0.47,"cid is 10326,compound_name is Indan,cid_paras is 10326,Molecular_Weight is 118.18,XLogP3 is 3.2,Hydrogen_Bond_Donor_Count is 0,Hydrogen_Bond_Acceptor_Count is 0,Rotatable_Bond_Count is 0,Exact_Mass is 118.078250319,Monoisotopic_Mass is 118.078250319,Topological_Polar_Surface_Area is 0,""Unit"":""Å²"",Heavy_Atom_Count is 9,Formal_Charge is 0,Complexity is 84.2,Isotope_Atom_Count is 0,Defined_Atom_Stereocenter_Count is 0,Undefined_Atom_Stereocenter_Count is 0,Defined_Bond_Stereocenter_Count is 0,Undefined_Bond_Stereocenter_Count is 0,Covalently_Bonded_Unit_Count is 1,Compound_Is_Canonicalized is Yes,Physical_Description is Liquid;[MerckIndex]Clearlightyellowliquid;[Sigma-AldrichMSDS]"
phthalimide,c1ccc2c(c1)C(=O)NC2=O,-9.61,-11.825,
1-iodobutane,CCCCI,-0.25,-0.223,
p-cresol,Cc1ccc(cc1)O,-6.13,-5.579,
2-iodopropane,CC(C)I,-0.46,-0.492,
2-methoxyphenol,COc1ccccc1O,-5.94,-4.746,
cyclopentene,C1CC=CC1,0.56,1.23,
111-trifluoropropan-2-ol,C[C@H](C(F)(F)F)O,-4.2,-3.486,
propan-1-amine,CCCN,-4.39,-3.053,
2-nitrophenol,c1ccc(c(c1)[N+](=O)[O-])O,-4.58,-5.667,
1-methylnaphthalene,Cc1cccc2c1cccc2,-2.44,-3.212,
hexachlorobenzene,c1(c(c(c(c(c1Cl)Cl)Cl)Cl)Cl)Cl,-2.33,0.379,
oct-2-enal,CCCCC/C=C/C=O,-3.43,-2.706,"cid is 10326,compound_name is Indan,cid_paras is 10326,Molecular_Weight is 118.18,XLogP3 is 3.2,Hydrogen_Bond_Donor_Count is 0,Hydrogen_Bond_Acceptor_Count is 0,Rotatable_Bond_Count is 0,Exact_Mass is 118.078250319,Monoisotopic_Mass is 118.078250319,Topological_Polar_Surface_Area is 0,""Unit"":""Å²"",Heavy_Atom_Count is 9,Formal_Charge is 0,Complexity is 84.2,Isotope_Atom_Count is 0,Defined_Atom_Stereocenter_Count is 0,Undefined_Atom_Stereocenter_Count is 0,Defined_Bond_Stereocenter_Count is 0,Undefined_Bond_Stereocenter_Count is 0,Covalently_Bonded_Unit_Count is 1,Compound_Is_Canonicalized is Yes,Physical_Description is Liquid;[MerckIndex]Clearlightyellowliquid;[Sigma-AldrichMSDS]"
oct-1-yne,CCCCCCC#C,0.71,0.832,"cid is 10326,compound_name is Indan,cid_paras is 10326,Molecular_Weight is 118.18,XLogP3 is 3.2,Hydrogen_Bond_Donor_Count is 0,Hydrogen_Bond_Acceptor_Count is 0,Rotatable_Bond_Count is 0,Exact_Mass is 118.078250319,Monoisotopic_Mass is 118.078250319,Topological_Polar_Surface_Area is 0,""Unit"":""Å²"",Heavy_Atom_Count is 9,Formal_Charge is 0,Complexity is 84.2,Isotope_Atom_Count is 0,Defined_Atom_Stereocenter_Count is 0,Undefined_Atom_Stereocenter_Count is 0,Defined_Bond_Stereocenter_Count is 0,Undefined_Bond_Stereocenter_Count is 0,Covalently_Bonded_Unit_Count is 1,Compound_Is_Canonicalized is Yes,Physical_Description is Liquid;[MerckIndex]Clearlightyellowliquid;[Sigma-AldrichMSDS]"
diazinon,CCOP(=S)(OCC)Oc1cc(nc(n1)C(C)C)C,-6.48,-10.753,
methyl octanoate,CCCCCCCC(=O)OC,-2.04,-3.035,
pyrrolidine,C1CCNC1,-5.48,-4.278,
4-hydroxybenzaldehyde,c1cc(ccc1C=O)O,-8.83,-10.05,
1-chloroheptane,CCCCCCCCl,0.29,1.467,
"1,4-dioxane",C1COCCO1,-5.06,-4.269,