iupac,smiles,expt,calc,Description
N-methylaniline,CNc1ccccc1,-4.69,-5.719,"cid is 402,compound_name is Hydrogen Sulfide,cid_paras is 402,Molecular_Weight is 34.08,XLogP3 is 0.5,Hydrogen_Bond_Donor_Count is 1,Hydrogen_Bond_Acceptor_Count is 1,Rotatable_Bond_Count is 0,Exact_Mass is 33.98772124,Monoisotopic_Mass is 33.98772124,Topological_Polar_Surface_Area is 1,""Unit"":""Å²"",Heavy_Atom_Count is 1,Formal_Charge is 0,Complexity is 0,Isotope_Atom_Count is 0,Defined_Atom_Stereocenter_Count is 0,Undefined_Atom_Stereocenter_Count is 0,Defined_Bond_Stereocenter_Count is 0,Undefined_Bond_Stereocenter_Count is 0,Covalently_Bonded_Unit_Count is 1,Compound_Is_Canonicalized is Yes,Physical_Description is Hydrogensulfideappearsasacolorlessgashavingastrongodorofrotteneggs.Boilingpoint-60.2°C.Shippedasaliquidconfinedunderitsownvaporpressure.Density(liquid)8.3lb/gal.Contactwiththeunconfinedliquidcancausefrostbitebyevaporativecooling.Gasisverytoxicbyinhalation.Fatiguesthesenseofsmellwhichcannotbecountedontowarnofthecontinuedpresenceofthegas.Prolongedexposureofclosedcontainerstoheatmayresultintheirviolentrupturingandrocketing.Rateofonset:Immediate&DelayedPersistence:MinutestohoursOdorthreshold:0.1ppmSource/use/otherhazard:Disinfectantlubricant/oils;intermforHCmanufacture;deadenssenseofsmell."",""Markup"":[{""Start"":0,""Length"":16,""URL"":""https://pubchem.ncbi.nlm.nih.gov/compound/Hydrogen%20sulfide"",""Type"":""PubChemInternalLink"",""Extra"":""CID-402,Color/Form is Colorlessgas[Shippedasaliquefiedcompressedgas].,Odor is Strongodorofrotteneggs[Note:Senseofsmellbecomesrapidlyfatigued&canNOTbereliedupontowarnofthecontinuouspresenseofhydrogensulfide]."",""Markup"":[{""Start"":137,""Length"":16,""URL"":""https://pubchem.ncbi.nlm.nih.gov/compound/hydrogen%20sulfide"",""Type"":""PubChemInternalLink"",""Extra"":""CID-402,Boiling_Point is -76.59°Fat760mmHg(EPA,1998),Melting_Point is -121.9°F(EPA,1998),Flash_Point is 500°F,Solubility is 0.4%(NIOSH,2024),Density is 0.916at-76°F(EPA,1998)-Lessdensethanwater;willfloat"",""Markup"":[{""Start"":46,""Length"":5,""URL"":""https://pubchem.ncbi.nlm.nih.gov/compound/water"",""Type"":""PubChemInternalLink"",""Extra"":""CID-962"
isopropyl acetate,CC(C)OC(=O)C,-2.64,-3.371,"cid is 3283,compound_name is Diethyl Ether,cid_paras is 3283,Molecular_Weight is 74.12,XLogP3 is 0.9,Hydrogen_Bond_Donor_Count is 0,Hydrogen_Bond_Acceptor_Count is 1,Rotatable_Bond_Count is 2,Exact_Mass is 74.073164938,Monoisotopic_Mass is 74.073164938,Topological_Polar_Surface_Area is 9.2,""Unit"":""Å²"",Heavy_Atom_Count is 5,Formal_Charge is 0,Complexity is 11.1,Isotope_Atom_Count is 0,Defined_Atom_Stereocenter_Count is 0,Undefined_Atom_Stereocenter_Count is 0,Defined_Bond_Stereocenter_Count is 0,Undefined_Bond_Stereocenter_Count is 0,Covalently_Bonded_Unit_Count is 1,Compound_Is_Canonicalized is Yes,Physical_Description is Diethyletherappearsasaclearcolorlessliquidwithananestheticodor.Flashpoint-49°F.Lessdensethanwaterandslightlysolubleinwater.Hencefloatsonwater.Vaporsareheavierthanair.Usedasasolventandtomakeotherchemicals."",""Markup"":[{""Start"":0,""Length"":13,""URL"":""https://pubchem.ncbi.nlm.nih.gov/compound/Diethyl%20ether"",""Type"":""PubChemInternalLink"",""Extra"":""CID-3283"",Color/Form is Colorless,volatile,mobileliquid,Odor is Sweetish,pungentodor,Boiling_Point is 94.3°Fat760mmHg(NTP,1992),Melting_Point is -177.3°F(NTP,1992),Flash_Point is -49°F(NTP,1992),Solubility is greaterthanorequalto100mg/mLat68°F(NTP,1992),Density is 0.714at68°F(USCG,1999)-Lessdensethanwater;willfloat"",""Markup"":[{""Start"":46,""Length"":5,""URL"":""https://pubchem.ncbi.nlm.nih.gov/compound/water"",""Type"":""PubChemInternalLink"",""Extra"":""CID-962"
benzene,c1ccccc1,-0.9,-0.806,"cid is 13263,compound_name is Ametryn,cid_paras is 13263,Molecular_Weight is 227.33,XLogP3 is 3,Hydrogen_Bond_Donor_Count is 2,Hydrogen_Bond_Acceptor_Count is 6,Rotatable_Bond_Count is 5,Exact_Mass is 227.12046674,Monoisotopic_Mass is 227.12046674,Topological_Polar_Surface_Area is 88,""Unit"":""Å²"",Heavy_Atom_Count is 15,Formal_Charge is 0,Complexity is 178,Isotope_Atom_Count is 0,Defined_Atom_Stereocenter_Count is 0,Undefined_Atom_Stereocenter_Count is 0,Defined_Bond_Stereocenter_Count is 0,Undefined_Bond_Stereocenter_Count is 0,Covalently_Bonded_Unit_Count is 1,Compound_Is_Canonicalized is Yes,Physical_Description is Crystals.Meltingpoint190-192°F(88-89°C).Usedasaherbicide.,Color/Form is Whitepowder,Boiling_Point is 337°Cat98.6kPa,Melting_Point is 83.6°C,Solubility is Inwater,209mg/Lat25°C"",""Markup"":[{""Start"":3,""Length"":5,""URL"":""https://pubchem.ncbi.nlm.nih.gov/compound/water"",""Type"":""PubChemInternalLink"",""Extra"":""CID-962,Density is 1.18at22°C"
"1,2,3-trichlorobenzene",c1cc(c(c(c1)Cl)Cl)Cl,-1.24,-0.51,"cid is 7184,compound_name is Butylparaben,cid_paras is 7184,Molecular_Weight is 194.23,XLogP3 is 3.6,Hydrogen_Bond_Donor_Count is 1,Hydrogen_Bond_Acceptor_Count is 3,Rotatable_Bond_Count is 5,Exact_Mass is 194.094294304,Monoisotopic_Mass is 194.094294304,Topological_Polar_Surface_Area is 46.5,""Unit"":""Å²"",Heavy_Atom_Count is 14,Formal_Charge is 0,Complexity is 171,Isotope_Atom_Count is 0,Defined_Atom_Stereocenter_Count is 0,Undefined_Atom_Stereocenter_Count is 0,Defined_Bond_Stereocenter_Count is 0,Undefined_Bond_Stereocenter_Count is 0,Covalently_Bonded_Unit_Count is 1,Compound_Is_Canonicalized is Yes,Physical_Description is N-butyl-p-hydroxybenzoateappearsasodorlesswhitecrystalsorcrystallinepowder.Tasteless,butnumbsthetongue.Aqueoussolutionsslightlyacidictolitmus.(NTP,1992)"",""Markup"":[{""Start"":0,""Length"":25,""URL"":""https://pubchem.ncbi.nlm.nih.gov/compound/N-butyl-p-hydroxybenzoate"",""Type"":""PubChemInternalLink"",""Extra"":""CID-7184,Color/Form is Small,colorlesscrystalsorpowder,Odor is Odorless,Boiling_Point is 156.00to157.00°C.@3.50mmHg,Melting_Point is 154to156°F(NTP,1992),Flash_Point is 181°C,Solubility is lessthan1mg/mLat63°F(NTP,1992)"
4-chlorophenyl)sulfanylmethylsulfanyl-diethoxy-thioxo-$l^{5}-phosphane,CCOP(=S)(OCC)SCSc1ccc(cc1)Cl,-6.5,-7.024,"cid is 8908,compound_name is Hexyl acetate,cid_paras is 8908,Molecular_Weight is 144.21,XLogP3 is 2.4,Hydrogen_Bond_Donor_Count is 0,Hydrogen_Bond_Acceptor_Count is 2,Rotatable_Bond_Count is 6,Exact_Mass is 144.115029749,Monoisotopic_Mass is 144.115029749,Topological_Polar_Surface_Area is 26.3,""Unit"":""Å²"",Heavy_Atom_Count is 10,Formal_Charge is 0,Complexity is 89.3,Isotope_Atom_Count is 0,Defined_Atom_Stereocenter_Count is 0,Undefined_Atom_Stereocenter_Count is 0,Defined_Bond_Stereocenter_Count is 0,Undefined_Bond_Stereocenter_Count is 0,Covalently_Bonded_Unit_Count is 1,Compound_Is_Canonicalized is Yes,Physical_Description is Hexylacetateappearsasacolorlessliquidwithamildsweetodor.Flashpoint113°F.Amoderatefirerisk.Inhalationmaycauseadverseeffects.Insolubleinwaterandverysolubleinalcoholsandethers.Whenheatedtohightemperaturesemitsacridsmokeandfumes.Usedasasolventandasapropellantinaerosols."",""Markup"":[{""Start"":0,""Length"":13,""URL"":""https://pubchem.ncbi.nlm.nih.gov/compound/Hexyl%20acetate"",""Type"":""PubChemInternalLink"",""Extra"":""CID-8908"",Color/Form is Colorlessliquid,Odor is Sweet-fruity,pearl-likeodor,Boiling_Point is 334.4to338°Fat760mmHg(USCG,1999),Melting_Point is -112°F(USCG,1999),Flash_Point is 99°F(USCG,1999),Solubility is Verysolubleinalcoholandether,Density is 0.876(USCG,1999)-Lessdensethanwater;willfloat"",""Markup"":[{""Start"":37,""Length"":5,""URL"":""https://pubchem.ncbi.nlm.nih.gov/compound/water"",""Type"":""PubChemInternalLink"",""Extra"":""CID-962"
"3-(dimethoxyphosphinothioylsulfanylmethyl)-1,2,3-benzotriazin-4-one",COP(=S)(OC)SCn1c(=O)c2ccccc2nn1,-10.03,-14.106,"cid is 8452,compound_name is Cyclopentanone,cid_paras is 8452,Molecular_Weight is 84.12,XLogP3 is 0.4,Hydrogen_Bond_Donor_Count is 0,Hydrogen_Bond_Acceptor_Count is 1,Rotatable_Bond_Count is 0,Exact_Mass is 84.057514874,Monoisotopic_Mass is 84.057514874,Topological_Polar_Surface_Area is 17.1,""Unit"":""Å²"",Heavy_Atom_Count is 6,Formal_Charge is 0,Complexity is 58.3,Isotope_Atom_Count is 0,Defined_Atom_Stereocenter_Count is 0,Undefined_Atom_Stereocenter_Count is 0,Defined_Bond_Stereocenter_Count is 0,Undefined_Bond_Stereocenter_Count is 0,Covalently_Bonded_Unit_Count is 1,Compound_Is_Canonicalized is Yes,Physical_Description is Cyclopentanoneappearsasaclearcolorlessliquidwithapetroleum-likeodor.Flashpoint87°F.Lessdensethanwaterandinsolubleinwater.Vaporsheavierthanair."",""Markup"":[{""Start"":0,""Length"":14,""URL"":""https://pubchem.ncbi.nlm.nih.gov/compound/Cyclopentanone"",""Type"":""PubChemInternalLink"",""Extra"":""CID-8452"",Color/Form is WATER-WHITE,MOBILELIQUID"",""Markup"":[{""Start"":0,""Length"":5,""URL"":""https://pubchem.ncbi.nlm.nih.gov/compound/WATER"",""Type"":""PubChemInternalLink"",""Extra"":""CID-962,Odor is DISTINCTIVEETHEREALODOR,SOMEWHATLIKEPEPPERMINT,Boiling_Point is 267.17°Fat760mmHg(NTP,1992),Melting_Point is -60.3°F(NTP,1992),Flash_Point is 86°F(NTP,1992),Solubility is Solinalcohol,acetone,ether"",""Markup"":[{""Start"":16,""Length"":7,""URL"":""https://pubchem.ncbi.nlm.nih.gov/compound/acetone"",""Type"":""PubChemInternalLink"",""Extra"":""CID-180,Density is 0.94869at68°F(NTP,1992)-Lessdensethanwater;willfloat"",""Markup"":[{""Start"":47,""Length"":5,""URL"":""https://pubchem.ncbi.nlm.nih.gov/compound/water"",""Type"":""PubChemInternalLink"",""Extra"":""CID-962"
"1,2,4-trichlorodibenzo-p-dioxin",c1ccc2c(c1)Oc3c(cc(c(c3O2)Cl)Cl)Cl,-4.05,-3.16,"cid is 7991,compound_name is Valeric acid,cid_paras is 7991,Molecular_Weight is 102.13,XLogP3 is 1.4,Hydrogen_Bond_Donor_Count is 1,Hydrogen_Bond_Acceptor_Count is 2,Rotatable_Bond_Count is 3,Exact_Mass is 102.068079557,Monoisotopic_Mass is 102.068079557,Topological_Polar_Surface_Area is 37.3,""Unit"":""Å²"",Heavy_Atom_Count is 7,Formal_Charge is 0,Complexity is 59.1,Isotope_Atom_Count is 0,Defined_Atom_Stereocenter_Count is 0,Undefined_Atom_Stereocenter_Count is 0,Defined_Bond_Stereocenter_Count is 0,Undefined_Bond_Stereocenter_Count is 0,Covalently_Bonded_Unit_Count is 1,Compound_Is_Canonicalized is Yes,Physical_Description is Pentanoicacidappearsasacolorlessliquidwithapenetratingunpleasantodor.Density0.94g/cm3.Freezingpoint-93.2°F(-34°C).Boilingpoint365.7°F(185.4°C).Flashpoint192°F(88.9°C).Corrosivetometalsandtissue."",""Markup"":[{""Start"":0,""Length"":14,""URL"":""https://pubchem.ncbi.nlm.nih.gov/compound/Pentanoic%20acid"",""Type"":""PubChemInternalLink"",""Extra"":""CID-23616479,Color/Form is Colorlessliquid,Odor is UNPLEASANTODOR,SIMILARTOBUTYRICACID"",""Markup"":[{""Start"":28,""Length"":12,""URL"":""https://pubchem.ncbi.nlm.nih.gov/compound/BUTYRIC%20ACID"",""Type"":""PubChemInternalLink"",""Extra"":""CID-264,Boiling_Point is 365°Fat760mmHg(NTP,1992),Melting_Point is -30.1°F(NTP,1992),Flash_Point is 192°F(NTP,1992),Solubility is 10to50mg/mLat72°F(NTP,1992),Density is 0.939(USCG,1999)-Lessdensethanwater;willfloat"",""Markup"":[{""Start"":37,""Length"":5,""URL"":""https://pubchem.ncbi.nlm.nih.gov/compound/water"",""Type"":""PubChemInternalLink"",""Extra"":""CID-962"
"2,3-dimethylbuta-1,3-diene",CC(=C)C(=C)C,0.4,1.862,"cid is 6332,compound_name is Bromoethane,cid_paras is 6332,Molecular_Weight is 108.97,XLogP3 is 1.4,Hydrogen_Bond_Donor_Count is 0,Hydrogen_Bond_Acceptor_Count is 0,Rotatable_Bond_Count is 0,Exact_Mass is 107.95746,Monoisotopic_Mass is 107.95746,Topological_Polar_Surface_Area is 0,""Unit"":""Å²"",Heavy_Atom_Count is 3,Formal_Charge is 0,Complexity is 2.8,Isotope_Atom_Count is 0,Defined_Atom_Stereocenter_Count is 0,Undefined_Atom_Stereocenter_Count is 0,Defined_Bond_Stereocenter_Count is 0,Undefined_Bond_Stereocenter_Count is 0,Covalently_Bonded_Unit_Count is 1,Compound_Is_Canonicalized is Yes,Physical_Description is Ethylbromideappearsasacolorlessvolatileliquid.Slightlysolubleinwateranddenserthanwater.Flashpointbelow0°F.Vaporsareheavierthanair.Toxicbyinhalation.Irritatesskinandeyes.Usedtomakepharmaceuticalsandasasolvent."",""Markup"":[{""Start"":0,""Length"":13,""URL"":""https://pubchem.ncbi.nlm.nih.gov/compound/Ethyl%20bromide"",""Type"":""PubChemInternalLink"",""Extra"":""CID-6332"",Color/Form is Liquid,Odor is ...Ether-likeodor,Boiling_Point is 101.1°Fat760mmHg(NTP,1992),Melting_Point is -182°F(NTP,1992),Flash_Point is -10°F(NTP,1992),Solubility is lessthan1mg/mLat61°F(NTP,1992),Density is 1.46at68°F(NTP,1992)-Denserthanwater;willsink"",""Markup"":[{""Start"":40,""Length"":5,""URL"":""https://pubchem.ncbi.nlm.nih.gov/compound/water"",""Type"":""PubChemInternalLink"",""Extra"":""CID-962"
hex-1-ene,CCCCC=C,1.58,2.628,"cid is 11387,compound_name is 2,6-Dimethylnaphthalene,cid_paras is 11387,Molecular_Weight is 156.22,XLogP3 is 4.3,Hydrogen_Bond_Donor_Count is 0,Hydrogen_Bond_Acceptor_Count is 0,Rotatable_Bond_Count is 0,Exact_Mass is 156.093900383,Monoisotopic_Mass is 156.093900383,Topological_Polar_Surface_Area is 0,""Unit"":""Å²"",Heavy_Atom_Count is 12,Formal_Charge is 0,Complexity is 132,Isotope_Atom_Count is 0,Defined_Atom_Stereocenter_Count is 0,Undefined_Atom_Stereocenter_Count is 0,Defined_Bond_Stereocenter_Count is 0,Undefined_Bond_Stereocenter_Count is 0,Covalently_Bonded_Unit_Count is 1,Compound_Is_Canonicalized is Yes,Physical_Description is Whitepowder;[AlfaAesarMSDS]"
hydrogen sulfide,S,-0.7,-1.135,"cid is 8103,compound_name is 1-Hexanol,cid_paras is 8103,Molecular_Weight is 102.17,XLogP3 is 2,Hydrogen_Bond_Donor_Count is 1,Hydrogen_Bond_Acceptor_Count is 1,Rotatable_Bond_Count is 4,Exact_Mass is 102.104465066,Monoisotopic_Mass is 102.104465066,Topological_Polar_Surface_Area is 20.2,""Unit"":""Å²"",Heavy_Atom_Count is 7,Formal_Charge is 0,Complexity is 27.4,Isotope_Atom_Count is 0,Defined_Atom_Stereocenter_Count is 0,Undefined_Atom_Stereocenter_Count is 0,Defined_Bond_Stereocenter_Count is 0,Undefined_Bond_Stereocenter_Count is 0,Covalently_Bonded_Unit_Count is 1,Compound_Is_Canonicalized is Yes,Physical_Description is Hexanolsappearsasaclearcolorlessliquidmixtureofisomericsix-carbonalcoholswithsimilarchemicalproperties.Vaporsareheavierthanair.Usedtomakepharmaceuticalsandasasolvent."",""Markup"":[{""Start"":69,""Length"":6,""URL"":""https://pubchem.ncbi.nlm.nih.gov/element/Carbon"",""Type"":""PubChemInternalLink"",""Extra"":""Element-Carbon,Color/Form is Colorlessliquid,Odor is Characteristic;sweetalcohol;pleasant,Boiling_Point is 314.8°Fat760mmHg(USCG,1999),Melting_Point is -48.3°F(USCG,1999),Flash_Point is 145°F(USCG,1999),Solubility is Solinethanol,acetone,chloroform;misciblewithether,benzene;slightlysolubleincarbontetrachloride"",""Markup"":[{""Start"":7,""Length"":7,""URL"":""https://pubchem.ncbi.nlm.nih.gov/compound/ethanol"",""Type"":""PubChemInternalLink"",""Extra"":""CID-702"",Density is 0.85at68°F(USCG,1999)-Lessdensethanwater;willfloat"",""Markup"":[{""Start"":45,""Length"":5,""URL"":""https://pubchem.ncbi.nlm.nih.gov/compound/water"",""Type"":""PubChemInternalLink"",""Extra"":""CID-962"
ethoxyethane,CCOCC,-1.59,-0.617,"cid is 249266,compound_name is 2-Chlorobiphenyl,cid_paras is 249266,Molecular_Weight is 188.65,XLogP3 is 4.5,Hydrogen_Bond_Donor_Count is 0,Hydrogen_Bond_Acceptor_Count is 0,Rotatable_Bond_Count is 1,Exact_Mass is 188.0392780,Monoisotopic_Mass is 188.0392780,Topological_Polar_Surface_Area is 0,""Unit"":""Å²"",Heavy_Atom_Count is 13,Formal_Charge is 0,Complexity is 149,Isotope_Atom_Count is 0,Defined_Atom_Stereocenter_Count is 0,Undefined_Atom_Stereocenter_Count is 0,Defined_Bond_Stereocenter_Count is 0,Undefined_Bond_Stereocenter_Count is 0,Covalently_Bonded_Unit_Count is 1,Compound_Is_Canonicalized is Yes,Color/Form is Clearoil,Boiling_Point is 290-325°C,Flash_Point is 152-154°C;Clevelandopencup,Solubility is SolubilityinwatervariesbecauseAroclorsarevariablemixtures."",""Markup"":[{""Start"":14,""Length"":5,""URL"":""https://pubchem.ncbi.nlm.nih.gov/compound/water"",""Type"":""PubChemInternalLink"",""Extra"":""CID-962,Density is 1.270-1.280/15.5°C"
"2-N-ethyl-6-(methylsulfanyl)-4-N-(propan-2-yl)-1,3,5-triazine-2,4-diamine",CCNc1nc(nc(n1)SC)NC(C)C,-7.65,-10.552,"cid is 11574,compound_name is 1-Methylcyclohexene,cid_paras is 11574,Molecular_Weight is 96.17,XLogP3 is 2.4,Hydrogen_Bond_Donor_Count is 0,Hydrogen_Bond_Acceptor_Count is 0,Rotatable_Bond_Count is 0,Exact_Mass is 96.093900383,Monoisotopic_Mass is 96.093900383,Topological_Polar_Surface_Area is 0,""Unit"":""Å²"",Heavy_Atom_Count is 7,Formal_Charge is 0,Complexity is 80,Isotope_Atom_Count is 0,Defined_Atom_Stereocenter_Count is 0,Undefined_Atom_Stereocenter_Count is 0,Defined_Bond_Stereocenter_Count is 0,Undefined_Bond_Stereocenter_Count is 0,Covalently_Bonded_Unit_Count is 1,Compound_Is_Canonicalized is Yes,Physical_Description is Clearcolorlessliquid;[Sigma-AldrichMSDS]"
butyl paraben,CCCCOC(=O)c1ccc(cc1)O,-8.72,-8.771,"cid is 30209,compound_name is Nitric acid, hexyl ester,cid_paras is 30209,Molecular_Weight is 147.17,XLogP3 is 3.2,Hydrogen_Bond_Donor_Count is 0,Hydrogen_Bond_Acceptor_Count is 3,Rotatable_Bond_Count is 5,Exact_Mass is 147.08954328,Monoisotopic_Mass is 147.08954328,Topological_Polar_Surface_Area is 55,""Unit"":""Å²"",Heavy_Atom_Count is 10,Formal_Charge is 0,Complexity is 89.5,Isotope_Atom_Count is 0,Defined_Atom_Stereocenter_Count is 0,Undefined_Atom_Stereocenter_Count is 0,Defined_Bond_Stereocenter_Count is 0,Undefined_Bond_Stereocenter_Count is 0,Covalently_Bonded_Unit_Count is 1,Compound_Is_Canonicalized is Yes"
hexyl acetate,CCCCCCOC(=O)C,-2.26,-2.219,"cid is 5558,compound_name is Bromoform,cid_paras is 5558,Molecular_Weight is 252.73,XLogP3 is 2.8,Hydrogen_Bond_Donor_Count is 0,Hydrogen_Bond_Acceptor_Count is 0,Rotatable_Bond_Count is 0,Exact_Mass is 251.76079,Monoisotopic_Mass is 249.76284,Topological_Polar_Surface_Area is 0,""Unit"":""Å²"",Heavy_Atom_Count is 4,Formal_Charge is 0,Complexity is 8,Isotope_Atom_Count is 0,Defined_Atom_Stereocenter_Count is 0,Undefined_Atom_Stereocenter_Count is 0,Defined_Bond_Stereocenter_Count is 0,Undefined_Bond_Stereocenter_Count is 0,Covalently_Bonded_Unit_Count is 1,Compound_Is_Canonicalized is Yes,Physical_Description is Bromoformappearsasacolorlessliquidwithachloroform-likeodor.Denserthanwater(density:2.9g/cm3)andslightlysolubleinwater.Hencesinksinwater.Nonflammable.Toxicbyingestion,inhalationandskinabsorption.Alachrymator.Usedasasolventandtomakepharmaceuticals.Oftenstabilizedwith1to3%ethanol."",""Markup"":[{""Start"":0,""Length"":9,""URL"":""https://pubchem.ncbi.nlm.nih.gov/compound/Bromoform"",""Type"":""PubChemInternalLink"",""Extra"":""CID-5558"",Color/Form is Colorlessheavyliquid,Odor is Similartochloroform,Boiling_Point is 301.1°Fat760mmHg(NTP,1992),Melting_Point is 48°F(NTP,1992),Solubility is lessthan0.1mg/mLat72.5°F(NTP,1992),Density is 2.8912at68°F(USCG,1999)-Denserthanwater;willsink"",""Markup"":[{""Start"":43,""Length"":5,""URL"":""https://pubchem.ncbi.nlm.nih.gov/compound/water"",""Type"":""PubChemInternalLink"",""Extra"":""CID-962"