iupac,smiles,expt,calc,Description
bromo-trifluoro-methane,C(F)(F)(F)Br,1.79,1.564,"cid is 931,compound_name is Naphthalene,cid_paras is 931,Molecular_Weight is 128.17,XLogP3 is 3.3,Hydrogen_Bond_Donor_Count is 0,Hydrogen_Bond_Acceptor_Count is 0,Rotatable_Bond_Count is 0,Exact_Mass is 128.062600255,Monoisotopic_Mass is 128.062600255,Topological_Polar_Surface_Area is 0,""Unit"":""Å²"",Heavy_Atom_Count is 10,Formal_Charge is 0,Complexity is 80.6,Isotope_Atom_Count is 0,Defined_Atom_Stereocenter_Count is 0,Undefined_Atom_Stereocenter_Count is 0,Defined_Bond_Stereocenter_Count is 0,Undefined_Bond_Stereocenter_Count is 0,Covalently_Bonded_Unit_Count is 1,Compound_Is_Canonicalized is Yes,Physical_Description is Naphthaleneappearsasawhitecrystallinevolatilesolidwithastrongcoal-tarodor.Thesolidisdenserthanwaterandinsolubleinwater.Burns,butmaybedifficulttoignite.Inthemoltenformitisveryhot.Exposuretoskinmustbeavoided.Alsothevaporsgivenoffbythematerialmaybetoxic.Usedasamothrepellent,fumigant,lubricants,andtomakeotherchemicals,andformanyotheruses"",""Markup"":[{""Start"":0,""Length"":11,""URL"":""https://pubchem.ncbi.nlm.nih.gov/compound/Naphthalene"",""Type"":""PubChemInternalLink"",""Extra"":""CID-931"",Color/Form is Whitecrystallineflakes...Platesfromethanol"",""Markup"":[{""Start"":41,""Length"":7,""URL"":""https://pubchem.ncbi.nlm.nih.gov/compound/ethanol"",""Type"":""PubChemInternalLink"",""Extra"":""CID-702,Odor is Aromaticodor,Boiling_Point is 424°Fat760mmHg(NTP,1992),Melting_Point is 176.4°F(NTP,1992),Flash_Point is 190°F(NTP,1992),Solubility is lessthan1mg/mLat72°F(NTP,1992),Density is 1.15(NIOSH,2024)-Denserthanwater;willsink"",""Markup"":[{""Start"":33,""Length"":5,""URL"":""https://pubchem.ncbi.nlm.nih.gov/compound/water"",""Type"":""PubChemInternalLink"",""Extra"":""CID-962"
butan-1-ol,CCCCO,-4.72,-3.232,"cid is 37037,compound_name is 2,2',3,3',4,4',5-Heptachlorobiphenyl,cid_paras is 37037,Molecular_Weight is 395.3,XLogP3 is 7.9,Hydrogen_Bond_Donor_Count is 0,Hydrogen_Bond_Acceptor_Count is 0,Rotatable_Bond_Count is 1,Exact_Mass is 393.802494,Monoisotopic_Mass is 391.805444,Topological_Polar_Surface_Area is 0,""Unit"":""Å²"",Heavy_Atom_Count is 19,Formal_Charge is 0,Complexity is 313,Isotope_Atom_Count is 0,Defined_Atom_Stereocenter_Count is 0,Undefined_Atom_Stereocenter_Count is 0,Defined_Bond_Stereocenter_Count is 0,Undefined_Bond_Stereocenter_Count is 0,Covalently_Bonded_Unit_Count is 1,Compound_Is_Canonicalized is Yes"
fluorobenzene,c1ccc(cc1)F,-0.8,-0.041,"cid is 2244,compound_name is Aspirin,cid_paras is 2244,Molecular_Weight is 180.16,XLogP3 is 1.2,Hydrogen_Bond_Donor_Count is 1,Hydrogen_Bond_Acceptor_Count is 4,Rotatable_Bond_Count is 3,Exact_Mass is 180.04225873,Monoisotopic_Mass is 180.04225873,Topological_Polar_Surface_Area is 63.6,""Unit"":""Å²"",Heavy_Atom_Count is 13,Formal_Charge is 0,Complexity is 212,Isotope_Atom_Count is 0,Defined_Atom_Stereocenter_Count is 0,Undefined_Atom_Stereocenter_Count is 0,Defined_Bond_Stereocenter_Count is 0,Undefined_Bond_Stereocenter_Count is 0,Covalently_Bonded_Unit_Count is 1,Compound_Is_Canonicalized is Yes,Physical_Description is Acetylsalicylicacidappearsasodorlesswhitecrystalsorcrystallinepowderwithaslightlybittertaste.(NTP,1992)"",""Markup"":[{""Start"":0,""Length"":20,""URL"":""https://pubchem.ncbi.nlm.nih.gov/compound/Acetylsalicylic%20acid"",""Type"":""PubChemInternalLink"",""Extra"":""CID-2244,Color/Form is Monoclinictabletsorneedle-likecrystals,Odor is Odorless,butinmoistairitisgraduallyhydrolyzedandacquiresodorofaceticacid"",""Markup"":[{""Start"":75,""Length"":11,""URL"":""https://pubchem.ncbi.nlm.nih.gov/compound/acetic%20acid"",""Type"":""PubChemInternalLink"",""Extra"":""CID-176,Boiling_Point is 284°Fat760mmHg(decomposes)(NTP,1992),Melting_Point is 275°F(NTP,1992),Flash_Point is 482°F(NTP,1992),Solubility is lessthan1mg/mLat73°F(NTP,1992),Density is 1.4(NTP,1992)-Denserthanwater;willsink"",""Markup"":[{""Start"":30,""Length"":5,""URL"":""https://pubchem.ncbi.nlm.nih.gov/compound/water"",""Type"":""PubChemInternalLink"",""Extra"":""CID-962"
ethyl acetate,CCOC(=O)C,-2.94,-3.745,"cid is 6416,compound_name is Pinacolone,cid_paras is 6416,Molecular_Weight is 100.16,XLogP3 is 1.2,Hydrogen_Bond_Donor_Count is 0,Hydrogen_Bond_Acceptor_Count is 1,Rotatable_Bond_Count is 1,Exact_Mass is 100.088815002,Monoisotopic_Mass is 100.088815002,Topological_Polar_Surface_Area is 17.1,""Unit"":""Å²"",Heavy_Atom_Count is 7,Formal_Charge is 0,Complexity is 76.7,Isotope_Atom_Count is 0,Defined_Atom_Stereocenter_Count is 0,Undefined_Atom_Stereocenter_Count is 0,Defined_Bond_Stereocenter_Count is 0,Undefined_Bond_Stereocenter_Count is 0,Covalently_Bonded_Unit_Count is 1,Compound_Is_Canonicalized is Yes,Physical_Description is Colorlesstolightyellowliquid;[CHEMINFO],Color/Form is Colorlessliquid,Odor is Peppermintorcamphor-likeodor"",""Markup"":[{""Start"":14,""Length"":7,""URL"":""https://pubchem.ncbi.nlm.nih.gov/compound/camphor"",""Type"":""PubChemInternalLink"",""Extra"":""CID-2537,Boiling_Point is 106.1°C,Melting_Point is -52.5°C,Flash_Point is 23°C,Solubility is Solubleinethanol,ether,acetone,carbontetrachloride"",""Markup"":[{""Start"":11,""Length"":7,""URL"":""https://pubchem.ncbi.nlm.nih.gov/compound/ethanol"",""Type"":""PubChemInternalLink"",""Extra"":""CID-702"",Density is 0.7229at25°C/25°C"
isobutyl 2-methylpropanoate,CC(C)COC(=O)C(C)C,-1.69,-2.58,"cid is 4156,compound_name is Methyl methanesulfonate,cid_paras is 4156,Molecular_Weight is 110.13,XLogP3 is -0.4,Hydrogen_Bond_Donor_Count is 0,Hydrogen_Bond_Acceptor_Count is 3,Rotatable_Bond_Count is 1,Exact_Mass is 110.00376522,Monoisotopic_Mass is 110.00376522,Topological_Polar_Surface_Area is 51.8,""Unit"":""Å²"",Heavy_Atom_Count is 6,Formal_Charge is 0,Complexity is 105,Isotope_Atom_Count is 0,Defined_Atom_Stereocenter_Count is 0,Undefined_Atom_Stereocenter_Count is 0,Defined_Bond_Stereocenter_Count is 0,Undefined_Bond_Stereocenter_Count is 0,Covalently_Bonded_Unit_Count is 1,Compound_Is_Canonicalized is Yes,Physical_Description is Methylmethanesulfonateisacolorlesstoamberliquid.(NTP,1992)"",""Markup"":[{""Start"":0,""Length"":23,""URL"":""https://pubchem.ncbi.nlm.nih.gov/compound/Methyl%20methanesulfonate"",""Type"":""PubChemInternalLink"",""Extra"":""CID-4156,Color/Form is Colorlessliquid,Boiling_Point is 396to397°Fat760mmHg(NTP,1992),Melting_Point is 68°F(NTP,1992),Flash_Point is 220°F(NTP,1992),Solubility is greaterthanorequalto100mg/mLat73°F(NTP,1992),Density is 1.2943at68°F(NTP,1992)-Denserthanwater;willsink"",""Markup"":[{""Start"":42,""Length"":5,""URL"":""https://pubchem.ncbi.nlm.nih.gov/compound/water"",""Type"":""PubChemInternalLink"",""Extra"":""CID-962"
2-methoxy-2-methyl-propane,CC(C)(C)OC,-2.21,-0.691,"cid is 10822,compound_name is 4-Ethylpyridine,cid_paras is 10822,Molecular_Weight is 107.15,XLogP3 is 1.6,Hydrogen_Bond_Donor_Count is 0,Hydrogen_Bond_Acceptor_Count is 1,Rotatable_Bond_Count is 1,Exact_Mass is 107.073499291,Monoisotopic_Mass is 107.073499291,Topological_Polar_Surface_Area is 12.9,""Unit"":""Å²"",Heavy_Atom_Count is 8,Formal_Charge is 0,Complexity is 55.4,Isotope_Atom_Count is 0,Defined_Atom_Stereocenter_Count is 0,Undefined_Atom_Stereocenter_Count is 0,Defined_Bond_Stereocenter_Count is 0,Undefined_Bond_Stereocenter_Count is 0,Covalently_Bonded_Unit_Count is 1,Compound_Is_Canonicalized is Yes,Physical_Description is Liquidwithanobnoxiousodor;Turnsbrownifnotpure;[MerckIndex]Colorlesstopaleyellowliquidwithanunpleasantodor;[AlfaAesarMSDS]"
heptachlor,C1=C[C@@H]([C@@H]2[C@H]1[C@@]3(C(=C([C@]2(C3(Cl)Cl)Cl)Cl)Cl)Cl)Cl,-2.55,-0.974,"cid is 7912,compound_name is Diisopropylamine,cid_paras is 7912,Molecular_Weight is 101.19,XLogP3 is 1.4,Hydrogen_Bond_Donor_Count is 1,Hydrogen_Bond_Acceptor_Count is 1,Rotatable_Bond_Count is 2,Exact_Mass is 101.120449483,Monoisotopic_Mass is 101.120449483,Topological_Polar_Surface_Area is 12,""Unit"":""Å²"",Heavy_Atom_Count is 7,Formal_Charge is 0,Complexity is 33.4,Isotope_Atom_Count is 0,Defined_Atom_Stereocenter_Count is 0,Undefined_Atom_Stereocenter_Count is 0,Defined_Bond_Stereocenter_Count is 0,Undefined_Bond_Stereocenter_Count is 0,Covalently_Bonded_Unit_Count is 1,Compound_Is_Canonicalized is Yes,Physical_Description is Diisopropylamineappearsasaclearcolorlessliquidwithanammonia-likeodor.Flashpoint30°F.Lessdensethanwater.Vaporsheavierthanair.Toxicoxidesofnitrogenproducedduringcombustion.Usedtomakeotherchemicals."",""Markup"":[{""Start"":0,""Length"":16,""URL"":""https://pubchem.ncbi.nlm.nih.gov/compound/Diisopropylamine"",""Type"":""PubChemInternalLink"",""Extra"":""CID-7912"",Color/Form is Colorlessliquid...,Odor is ...Ammoniaorfish-likeodor."",""Markup"":[{""Start"":4,""Length"":7,""URL"":""https://pubchem.ncbi.nlm.nih.gov/compound/Ammonia"",""Type"":""PubChemInternalLink"",""Extra"":""CID-222,Boiling_Point is 183°Fat760mmHg(NTP,1992),Melting_Point is -78°F(NTP,1992),Flash_Point is 30°F(NTP,1992),Solubility is Slightlysoluble(NTP,1992),Density is 0.717at68°F(USCG,1999)-Lessdensethanwater;willfloat"",""Markup"":[{""Start"":46,""Length"":5,""URL"":""https://pubchem.ncbi.nlm.nih.gov/compound/water"",""Type"":""PubChemInternalLink"",""Extra"":""CID-962"
pentan-3-one,CCC(=O)CC,-3.41,-3.05,"cid is 36613,compound_name is 2,7-Dichlorodibenzo-P-dioxin,cid_paras is 36613,Molecular_Weight is 253.08,XLogP3 is 4.3,Hydrogen_Bond_Donor_Count is 0,Hydrogen_Bond_Acceptor_Count is 2,Rotatable_Bond_Count is 0,Exact_Mass is 251.9744848,Monoisotopic_Mass is 251.9744848,Topological_Polar_Surface_Area is 18.5,""Unit"":""Å²"",Heavy_Atom_Count is 16,Formal_Charge is 0,Complexity is 235,Isotope_Atom_Count is 0,Defined_Atom_Stereocenter_Count is 0,Undefined_Atom_Stereocenter_Count is 0,Defined_Bond_Stereocenter_Count is 0,Undefined_Bond_Stereocenter_Count is 0,Covalently_Bonded_Unit_Count is 1,Compound_Is_Canonicalized is Yes,Physical_Description is 2,7-dichlorodibenzo-p-dioxinappearsascolorlesscrystalsorawhitepowder.(NTP,1992)"",""Markup"":[{""Start"":0,""Length"":28,""URL"":""https://pubchem.ncbi.nlm.nih.gov/compound/2%2C7-dichlorodibenzo-p-dioxin"",""Type"":""PubChemInternalLink"",""Extra"":""CID-36613,Color/Form is COLORLESSCRYSTALS,Melting_Point is 394to396°F(NTP,1992),Solubility is lessthan1mg/mLat66°F(NTP,1992)"
"methyl 2,2,2-trifluoroacetate",COC(=O)C(F)(F)F,-1.1,-1.353,"cid is 8127,compound_name is Heptylamine,cid_paras is 8127,Molecular_Weight is 115.22,XLogP3 is 2.6,Hydrogen_Bond_Donor_Count is 1,Hydrogen_Bond_Acceptor_Count is 1,Rotatable_Bond_Count is 5,Exact_Mass is 115.136099547,Monoisotopic_Mass is 115.136099547,Topological_Polar_Surface_Area is 26,""Unit"":""Å²"",Heavy_Atom_Count is 8,Formal_Charge is 0,Complexity is 35.4,Isotope_Atom_Count is 0,Defined_Atom_Stereocenter_Count is 0,Undefined_Atom_Stereocenter_Count is 0,Defined_Bond_Stereocenter_Count is 0,Undefined_Bond_Stereocenter_Count is 0,Covalently_Bonded_Unit_Count is 1,Compound_Is_Canonicalized is Yes"
naphthalene,c1ccc2ccccc2c1,-2.4,-3.213,"cid is 7296,compound_name is Methylcyclopentane,cid_paras is 7296,Molecular_Weight is 84.16,XLogP3 is 3.4,Hydrogen_Bond_Donor_Count is 0,Hydrogen_Bond_Acceptor_Count is 0,Rotatable_Bond_Count is 0,Exact_Mass is 84.093900383,Monoisotopic_Mass is 84.093900383,Topological_Polar_Surface_Area is 0,""Unit"":""Å²"",Heavy_Atom_Count is 6,Formal_Charge is 0,Complexity is 33.3,Isotope_Atom_Count is 0,Defined_Atom_Stereocenter_Count is 0,Undefined_Atom_Stereocenter_Count is 0,Defined_Bond_Stereocenter_Count is 0,Undefined_Bond_Stereocenter_Count is 0,Covalently_Bonded_Unit_Count is 1,Compound_Is_Canonicalized is Yes,Physical_Description is Methylcyclopentaneappearsasacolorlessliquid.Insolubleinwaterandlessdensethanwater.Flashpointnear20°F.Verydangerousfirerisk.Vaporsmaybenarcoticandirritating.Usedtomakeotherchemicals."",""Markup"":[{""Start"":0,""Length"":18,""URL"":""https://pubchem.ncbi.nlm.nih.gov/compound/Methylcyclopentane"",""Type"":""PubChemInternalLink"",""Extra"":""CID-7296"",Color/Form is COLORLESSLIQUID,Odor is Likegasoline,Boiling_Point is 161.2°Fat760mmHg(NTP,1992),Melting_Point is -224.3°F(NTP,1992),Flash_Point is -11°F(NTP,1992),Solubility is lessthan1mg/mLat72°F(NTP,1992),Density is 0.749at68°F(USCG,1999)-Lessdensethanwater;willfloat"",""Markup"":[{""Start"":46,""Length"":5,""URL"":""https://pubchem.ncbi.nlm.nih.gov/compound/water"",""Type"":""PubChemInternalLink"",""Extra"":""CID-962"
"1,2,3,4-tetrachloro-5-(2,3,4-trichlorophenyl)benzene",c1cc(c(c(c1c2cc(c(c(c2Cl)Cl)Cl)Cl)Cl)Cl)Cl,-4.4,-0.805,"cid is 6334,compound_name is Propane,cid_paras is 6334,Molecular_Weight is 44.10,XLogP3 is 1.8,Hydrogen_Bond_Donor_Count is 0,Hydrogen_Bond_Acceptor_Count is 0,Rotatable_Bond_Count is 0,Exact_Mass is 44.062600255,Monoisotopic_Mass is 44.062600255,Topological_Polar_Surface_Area is 0,""Unit"":""Å²"",Heavy_Atom_Count is 3,Formal_Charge is 0,Complexity is 0,Isotope_Atom_Count is 0,Defined_Atom_Stereocenter_Count is 0,Undefined_Atom_Stereocenter_Count is 0,Defined_Bond_Stereocenter_Count is 0,Undefined_Bond_Stereocenter_Count is 0,Covalently_Bonded_Unit_Count is 1,Compound_Is_Canonicalized is Yes,Physical_Description is Propaneappearsasacolorlessgaswithafaintpetroleum-likeodor.Itisshippedasaliquefiedgasunderitsvaporpressure.Fortransportationitmaybestenched.Contactwiththeunconfinedliquidcancausefrostbitebyevaporativecooling.Easilyignited.Thevaporsareheavierthanairandaflamecanflashbacktothesourceofleakveryeasily.Theleakmaybeeitheraliquidorvaporleak.Thevaporscanasphyxiatebythedisplacementofair.Underprolongedexposuretofireorheatthecontainersmayruptureviolentlyandrocket."",""Markup"":[{""Start"":0,""Length"":7,""URL"":""https://pubchem.ncbi.nlm.nih.gov/compound/Propane"",""Type"":""PubChemInternalLink"",""Extra"":""CID-6334,Color/Form is Colorlessgas[Shippedasaliquefiedcompressedgas].,Odor is Odorless[Note:Afoulsmellingodorantisoftenaddedwhenusedforfuelpurposes].,Boiling_Point is -43.8°Fat760mmHg(USCG,1999),Melting_Point is -305.9°F(USCG,1999),Flash_Point is -156°F(gas)(USCG,1999),Solubility is 0.01%(NIOSH,2024),Density is 0.59at-58°F(USCG,1999)-Lessdensethanwater;willfloat"",""Markup"":[{""Start"":46,""Length"":5,""URL"":""https://pubchem.ncbi.nlm.nih.gov/compound/water"",""Type"":""PubChemInternalLink"",""Extra"":""CID-962"
acetylsalicylic acid,CC(=O)Oc1ccccc1C(=O)O,-9.94,-9.399,"cid is 7568485,compound_name is 2-Methyltetrahydrofuran, (S)-,cid_paras is 7568485,Molecular_Weight is 86.13,XLogP3 is 1,Hydrogen_Bond_Donor_Count is 0,Hydrogen_Bond_Acceptor_Count is 1,Rotatable_Bond_Count is 0,Exact_Mass is 86.073164938,Monoisotopic_Mass is 86.073164938,Topological_Polar_Surface_Area is 9.2,""Unit"":""Å²"",Heavy_Atom_Count is 6,Formal_Charge is 0,Complexity is 43.2,Isotope_Atom_Count is 0,Defined_Atom_Stereocenter_Count is 1,Undefined_Atom_Stereocenter_Count is 0,Defined_Bond_Stereocenter_Count is 0,Undefined_Bond_Stereocenter_Count is 0,Covalently_Bonded_Unit_Count is 1,Compound_Is_Canonicalized is Yes"
"3,3-dimethylbutan-2-one",CC(=O)C(C)(C)C,-3.11,-3.234,"cid is 6129,compound_name is Carbaryl,cid_paras is 6129,Molecular_Weight is 201.22,XLogP3 is 2.4,Hydrogen_Bond_Donor_Count is 1,Hydrogen_Bond_Acceptor_Count is 2,Rotatable_Bond_Count is 2,Exact_Mass is 201.078978594,Monoisotopic_Mass is 201.078978594,Topological_Polar_Surface_Area is 38.3,""Unit"":""Å²"",Heavy_Atom_Count is 15,Formal_Charge is 0,Complexity is 230,Isotope_Atom_Count is 0,Defined_Atom_Stereocenter_Count is 0,Undefined_Atom_Stereocenter_Count is 0,Defined_Bond_Stereocenter_Count is 0,Undefined_Bond_Stereocenter_Count is 0,Covalently_Bonded_Unit_Count is 1,Compound_Is_Canonicalized is Yes,Physical_Description is Carbarylappearsasawhitecrystallinesolid.Insolubleinwater.Combustible,althoughdifficulttoignite.Toxicbyinhalation(dust,etc.).Producestoxicoxidesofnitrogenduringcombustion."",""Markup"":[{""Start"":0,""Length"":8,""URL"":""https://pubchem.ncbi.nlm.nih.gov/compound/Carbaryl"",""Type"":""PubChemInternalLink"",""Extra"":""CID-6129"",Color/Form is Colorlesstolighttancrystals,Odor is ...Odorless...,Boiling_Point is Decomposes(NIOSH,2024),Melting_Point is 288°F(USCG,1999),Flash_Point is 193-202°C,Solubility is >30.2[ug/mL](ThemeanoftheresultsatpH7.4),Density is 1.23at68°F(USCG,1999)-Denserthanwater;willsink"",""Markup"":[{""Start"":41,""Length"":5,""URL"":""https://pubchem.ncbi.nlm.nih.gov/compound/water"",""Type"":""PubChemInternalLink"",""Extra"":""CID-962"
methyl methanesulfonate,COS(=O)(=O)C,-4.87,-8.824,"cid is 101,compound_name is 3-Hydroxybenzaldehyde,cid_paras is 101,Molecular_Weight is 122.12,XLogP3 is 1.4,Hydrogen_Bond_Donor_Count is 1,Hydrogen_Bond_Acceptor_Count is 2,Rotatable_Bond_Count is 1,Exact_Mass is 122.036779430,Monoisotopic_Mass is 122.036779430,Topological_Polar_Surface_Area is 37.3,""Unit"":""Å²"",Heavy_Atom_Count is 9,Formal_Charge is 0,Complexity is 101,Isotope_Atom_Count is 0,Defined_Atom_Stereocenter_Count is 0,Undefined_Atom_Stereocenter_Count is 0,Defined_Bond_Stereocenter_Count is 0,Undefined_Bond_Stereocenter_Count is 0,Covalently_Bonded_Unit_Count is 1,Compound_Is_Canonicalized is Yes,Physical_Description is Solid;[Sigma-AldrichMSDS]"
4-ethylpyridine,CCc1ccncc1,-4.73,-3.19,"cid is 8418,compound_name is Anthracene,cid_paras is 8418,Molecular_Weight is 178.23,XLogP3 is 4.4,Hydrogen_Bond_Donor_Count is 0,Hydrogen_Bond_Acceptor_Count is 0,Rotatable_Bond_Count is 0,Exact_Mass is 178.078250319,Monoisotopic_Mass is 178.078250319,Topological_Polar_Surface_Area is 0,""Unit"":""Å²"",Heavy_Atom_Count is 14,Formal_Charge is 0,Complexity is 154,Isotope_Atom_Count is 0,Defined_Atom_Stereocenter_Count is 0,Undefined_Atom_Stereocenter_Count is 0,Defined_Bond_Stereocenter_Count is 0,Undefined_Bond_Stereocenter_Count is 0,Covalently_Bonded_Unit_Count is 1,Compound_Is_Canonicalized is Yes,Physical_Description is Anthraceneisawhitetoyellowsolidwithaweakaromaticodor.Sinksinwater.(USCG,1999)"",""Markup"":[{""Start"":0,""Length"":10,""URL"":""https://pubchem.ncbi.nlm.nih.gov/compound/Anthracene"",""Type"":""PubChemInternalLink"",""Extra"":""CID-8418"",Color/Form is Monoclinicplatesfromalcoholrecrystallization;whenpure,colorlesswithvioletfluorescence,Odor is Weakaromaticodor,Boiling_Point is 644°Fat760mmHg(corrected);439.7°Fat53mmHg,sublimes(NTP,1992),Melting_Point is 421to424°F(NTP,1992),Flash_Point is 250°F(NTP,1992),Solubility is lessthan1mg/mLat68°F(NTP,1992),Density is 1.24at68°F(USCG,1999)-Denserthanwater;willsink"",""Markup"":[{""Start"":41,""Length"":5,""URL"":""https://pubchem.ncbi.nlm.nih.gov/compound/water"",""Type"":""PubChemInternalLink"",""Extra"":""CID-962"