iupac,smiles,expt,calc,Description
N-isopropylpropan-2-amine,CC(C)NC(C)C,-3.22,-1.985,"cid is 6344,compound_name is Methylene Chloride,cid_paras is 6344,Molecular_Weight is 84.93,XLogP3 is 1.5,Hydrogen_Bond_Donor_Count is 0,Hydrogen_Bond_Acceptor_Count is 0,Rotatable_Bond_Count is 0,Exact_Mass is 83.9533555,Monoisotopic_Mass is 83.9533555,Topological_Polar_Surface_Area is 0,""Unit"":""Å²"",Heavy_Atom_Count is 3,Formal_Charge is 0,Complexity is 2.8,Isotope_Atom_Count is 0,Defined_Atom_Stereocenter_Count is 0,Undefined_Atom_Stereocenter_Count is 0,Defined_Bond_Stereocenter_Count is 0,Undefined_Bond_Stereocenter_Count is 0,Covalently_Bonded_Unit_Count is 1,Compound_Is_Canonicalized is Yes,Physical_Description is Dichloromethaneappearsasacolorlessliquidwithasweet,penetrating,ether-likeodor.Noncombustiblebyifexposedtohightemperaturesmayemittoxicchloridefumes.Vaporsarenarcoticinhighconcentrations.Usedasasolventandpaintremover."",""Markup"":[{""Start"":0,""Length"":15,""URL"":""https://pubchem.ncbi.nlm.nih.gov/compound/Dichloromethane"",""Type"":""PubChemInternalLink"",""Extra"":""CID-12456601"",Color/Form is Colorlessliquid[Note:Agasabove104degreesF],Odor is Sweet,pleasantodor,likechloroform"",""Markup"":[{""Start"":27,""Length"":10,""URL"":""https://pubchem.ncbi.nlm.nih.gov/compound/chloroform"",""Type"":""PubChemInternalLink"",""Extra"":""CID-6212,Boiling_Point is 103.6°Fat760mmHg(NTP,1992),Melting_Point is -142.1°F(NTP,1992),Solubility is 10to50mg/mLat70°F(NTP,1992),Density is 1.322at68°F(USCG,1999)-Denserthanwater;willsink"",""Markup"":[{""Start"":42,""Length"":5,""URL"":""https://pubchem.ncbi.nlm.nih.gov/compound/water"",""Type"":""PubChemInternalLink"",""Extra"":""CID-962"
"2,7-dichlorodibenzo-p-dioxin",c1cc2c(cc1Cl)Oc3ccc(cc3O2)Cl,-3.67,-3.321,"cid is 69027,compound_name is Methyl pivalate,cid_paras is 69027,Molecular_Weight is 116.16,XLogP3 is 1.8,Hydrogen_Bond_Donor_Count is 0,Hydrogen_Bond_Acceptor_Count is 2,Rotatable_Bond_Count is 2,Exact_Mass is 116.083729621,Monoisotopic_Mass is 116.083729621,Topological_Polar_Surface_Area is 26.3,""Unit"":""Å²"",Heavy_Atom_Count is 8,Formal_Charge is 0,Complexity is 89.2,Isotope_Atom_Count is 0,Defined_Atom_Stereocenter_Count is 0,Undefined_Atom_Stereocenter_Count is 0,Defined_Bond_Stereocenter_Count is 0,Undefined_Bond_Stereocenter_Count is 0,Covalently_Bonded_Unit_Count is 1,Compound_Is_Canonicalized is Yes,Physical_Description is Clearcolorlessliquid;[Sigma-AldrichMSDS]"
heptan-1-amine,CCCCCCCN,-3.79,-2.554,"cid is 6423,compound_name is Chloropicrin,cid_paras is 6423,Molecular_Weight is 164.37,XLogP3 is 2.1,Hydrogen_Bond_Donor_Count is 0,Hydrogen_Bond_Acceptor_Count is 2,Rotatable_Bond_Count is 0,Exact_Mass is 162.899461,Monoisotopic_Mass is 162.899461,Topological_Polar_Surface_Area is 45.8,""Unit"":""Å²"",Heavy_Atom_Count is 7,Formal_Charge is 0,Complexity is 79.9,Isotope_Atom_Count is 0,Defined_Atom_Stereocenter_Count is 0,Undefined_Atom_Stereocenter_Count is 0,Defined_Bond_Stereocenter_Count is 0,Undefined_Bond_Stereocenter_Count is 0,Covalently_Bonded_Unit_Count is 1,Compound_Is_Canonicalized is Yes,Physical_Description is Chloropicrinappearsasaslightlyoilycolorlesstoyellowliquidwithastrongirritatingodor.Noncombustible.Denserthanwater.Vaporsarepoisonousbyinhalationandirritateeyes,nose,andthroat."",""Markup"":[{""Start"":0,""Length"":12,""URL"":""https://pubchem.ncbi.nlm.nih.gov/compound/Chloropicrin"",""Type"":""PubChemInternalLink"",""Extra"":""CID-6423"",Color/Form is Slightlyoilyliquid,Odor is Intenselyirritatingteargasodor,Boiling_Point is 234°Fat760mmHg(NTP,1992),Melting_Point is -92.6°F(NTP,1992),Solubility is 1to5mg/mLat72°F(NTP,1992),Density is 1.64at77°F(USCG,1999)-Denserthanwater;willsink"",""Markup"":[{""Start"":41,""Length"":5,""URL"":""https://pubchem.ncbi.nlm.nih.gov/compound/water"",""Type"":""PubChemInternalLink"",""Extra"":""CID-962"
methylcyclopentane,CC1CCCC1,1.59,1.785,"cid is 11335,compound_name is 2,6-Dimethylphenol,cid_paras is 11335,Molecular_Weight is 122.16,XLogP3 is 2.4,Hydrogen_Bond_Donor_Count is 1,Hydrogen_Bond_Acceptor_Count is 1,Rotatable_Bond_Count is 0,Exact_Mass is 122.073164938,Monoisotopic_Mass is 122.073164938,Topological_Polar_Surface_Area is 20.2,""Unit"":""Å²"",Heavy_Atom_Count is 9,Formal_Charge is 0,Complexity is 80.6,Isotope_Atom_Count is 0,Defined_Atom_Stereocenter_Count is 0,Undefined_Atom_Stereocenter_Count is 0,Defined_Bond_Stereocenter_Count is 0,Undefined_Bond_Stereocenter_Count is 0,Covalently_Bonded_Unit_Count is 1,Compound_Is_Canonicalized is Yes,Physical_Description is 2,6-dimethylphenolisacolorlesstooff-whitecrystallinesolidwithasweettarryodor.Odorthresholdconcentration:0.4mg/L.(NTP,1992)"",""Markup"":[{""Start"":0,""Length"":18,""URL"":""https://pubchem.ncbi.nlm.nih.gov/compound/2%2C6-dimethylphenol"",""Type"":""PubChemInternalLink"",""Extra"":""CID-11335,Color/Form is LEAVESORNEEDLESFROMALCOHOL,Boiling_Point is 397°Fat760mmHg(NTP,1992),Melting_Point is 120°F(NTP,1992),Flash_Point is 165°F(NTP,1992),Solubility is lessthan1mg/mLat68°F(NTP,1992),Density is 1.01at68°F(NTP,1992)-Denserthanwater;willsink"",""Markup"":[{""Start"":40,""Length"":5,""URL"":""https://pubchem.ncbi.nlm.nih.gov/compound/water"",""Type"":""PubChemInternalLink"",""Extra"":""CID-962"
propane,CCC,2.0,2.495,"cid is 342,compound_name is m-Cresol,cid_paras is 342,Molecular_Weight is 108.14,XLogP3 is 2,Hydrogen_Bond_Donor_Count is 1,Hydrogen_Bond_Acceptor_Count is 1,Rotatable_Bond_Count is 0,Exact_Mass is 108.057514874,Monoisotopic_Mass is 108.057514874,Topological_Polar_Surface_Area is 20.2,""Unit"":""Å²"",Heavy_Atom_Count is 8,Formal_Charge is 0,Complexity is 70.8,Isotope_Atom_Count is 0,Defined_Atom_Stereocenter_Count is 0,Undefined_Atom_Stereocenter_Count is 0,Defined_Bond_Stereocenter_Count is 0,Undefined_Bond_Stereocenter_Count is 0,Covalently_Bonded_Unit_Count is 1,Compound_Is_Canonicalized is Yes,Physical_Description is M-cresolisacolorlessliquidwithasweettarryodor.Sinksandmixesslowlywithwater.(USCG,1999)"",""Markup"":[{""Start"":0,""Length"":8,""URL"":""https://pubchem.ncbi.nlm.nih.gov/compound/M-cresol"",""Type"":""PubChemInternalLink"",""Extra"":""CID-342"",Color/Form is Colorless,yellowishliquid,Odor is Phenolicodor,Boiling_Point is 397°Fat760mmHg(NTP,1992),Melting_Point is 52.7°F(NTP,1992),Flash_Point is 187°F(NTP,1992),Solubility is 10to50mg/mLat68°F(NTP,1992),Density is 1.0336at68°F(USCG,1999)-Denserthanwater;willsink"",""Markup"":[{""Start"":43,""Length"":5,""URL"":""https://pubchem.ncbi.nlm.nih.gov/compound/water"",""Type"":""PubChemInternalLink"",""Extra"":""CID-962"
2-methyltetrahydrofuran,C[C@H]1CCCO1,-3.3,-1.984,"cid is 8323,compound_name is 1-Amino-4-hydroxyanthraquinone,cid_paras is 8323,Molecular_Weight is 239.23,XLogP3 is 3.4,Hydrogen_Bond_Donor_Count is 2,Hydrogen_Bond_Acceptor_Count is 4,Rotatable_Bond_Count is 0,Exact_Mass is 239.058243149,Monoisotopic_Mass is 239.058243149,Topological_Polar_Surface_Area is 80.4,""Unit"":""Å²"",Heavy_Atom_Count is 18,Formal_Charge is 0,Complexity is 381,Isotope_Atom_Count is 0,Defined_Atom_Stereocenter_Count is 0,Undefined_Atom_Stereocenter_Count is 0,Defined_Bond_Stereocenter_Count is 0,Undefined_Bond_Stereocenter_Count is 0,Covalently_Bonded_Unit_Count is 1,Compound_Is_Canonicalized is Yes,Physical_Description is Powder;[AlfaAesarMSDS]"
naphthalen-1-yl N-methylcarbamate,CNC(=O)Oc1cccc2c1cccc2,-9.45,-10.436,"cid is 31420,compound_name is 1,4-Diaminoanthraquinone,cid_paras is 31420,Molecular_Weight is 238.24,XLogP3 is 2.6,Hydrogen_Bond_Donor_Count is 2,Hydrogen_Bond_Acceptor_Count is 4,Rotatable_Bond_Count is 0,Exact_Mass is 238.074227566,Monoisotopic_Mass is 238.074227566,Topological_Polar_Surface_Area is 86.2,""Unit"":""Å²"",Heavy_Atom_Count is 18,Formal_Charge is 0,Complexity is 346,Isotope_Atom_Count is 0,Defined_Atom_Stereocenter_Count is 0,Undefined_Atom_Stereocenter_Count is 0,Defined_Bond_Stereocenter_Count is 0,Undefined_Bond_Stereocenter_Count is 0,Covalently_Bonded_Unit_Count is 1,Compound_Is_Canonicalized is Yes,Physical_Description is Darkvioletsolid;[EC:SCCS(ScientificCommitteeonConsumerSafety),OpiniononDisperseViolet1,22June2010]Blackpowder;[AlfaAesarMSDS]"
3-hydroxybenzaldehyde,c1cc(cc(c1)O)C=O,-9.52,-9.369,"cid is 13187,compound_name is 2-Nonanone,cid_paras is 13187,Molecular_Weight is 142.24,XLogP3 is 3.1,Hydrogen_Bond_Donor_Count is 0,Hydrogen_Bond_Acceptor_Count is 1,Rotatable_Bond_Count is 6,Exact_Mass is 142.135765193,Monoisotopic_Mass is 142.135765193,Topological_Polar_Surface_Area is 17.1,""Unit"":""Å²"",Heavy_Atom_Count is 10,Formal_Charge is 0,Complexity is 86.7,Isotope_Atom_Count is 0,Defined_Atom_Stereocenter_Count is 0,Undefined_Atom_Stereocenter_Count is 0,Defined_Bond_Stereocenter_Count is 0,Undefined_Bond_Stereocenter_Count is 0,Covalently_Bonded_Unit_Count is 1,Compound_Is_Canonicalized is Yes,Physical_Description is Methylheptylketoneisacolorlessliquid.(USCG,1999)"",""Markup"":[{""Start"":0,""Length"":20,""URL"":""https://pubchem.ncbi.nlm.nih.gov/compound/Methyl%20heptyl%20ketone"",""Type"":""PubChemInternalLink"",""Extra"":""CID-13187,Boiling_Point is 377.6°Fat743mmHg(USCG,1999),Melting_Point is -5.8°F(USCG,1999),Flash_Point is 148°F(USCG,1999),Solubility is 0.371mg/mLat25°C,Density is 0.832(USCG,1999)-Lessdensethanwater;willfloat"",""Markup"":[{""Start"":37,""Length"":5,""URL"":""https://pubchem.ncbi.nlm.nih.gov/compound/water"",""Type"":""PubChemInternalLink"",""Extra"":""CID-962"
anthracene,c1ccc2cc3ccccc3cc2c1,-3.95,-5.187,"cid is 8007,compound_name is Butylamine,cid_paras is 8007,Molecular_Weight is 73.14,XLogP3 is 1,Hydrogen_Bond_Donor_Count is 1,Hydrogen_Bond_Acceptor_Count is 1,Rotatable_Bond_Count is 2,Exact_Mass is 73.089149355,Monoisotopic_Mass is 73.089149355,Topological_Polar_Surface_Area is 26,""Unit"":""Å²"",Heavy_Atom_Count is 5,Formal_Charge is 0,Complexity is 13.1,Isotope_Atom_Count is 0,Defined_Atom_Stereocenter_Count is 0,Undefined_Atom_Stereocenter_Count is 0,Defined_Bond_Stereocenter_Count is 0,Undefined_Bond_Stereocenter_Count is 0,Covalently_Bonded_Unit_Count is 1,Compound_Is_Canonicalized is Yes,Physical_Description is N-butylamineappearsasaclearcolorlessliquidwithanammonia-likeodor.Flashpoint10°F.Lessdense(6.2lb/gal)thanwater.Vaporsheavierthanair.Producestoxicoxidesofnitrogenduringcombustion."",""Markup"":[{""Start"":0,""Length"":12,""URL"":""https://pubchem.ncbi.nlm.nih.gov/compound/N-butylamine"",""Type"":""PubChemInternalLink"",""Extra"":""CID-8007"",Color/Form is CLEAR,COLORLESSLIQUID,Odor is Amineodor,Boiling_Point is 172.4°Fat760mmHg(NTP,1992),Melting_Point is -58°F(NTP,1992),Flash_Point is 10°F(NTP,1992),Solubility is Soluble(>=10mg/ml)(NTP,1992),Density is 0.741at68°F(USCG,1999)-Lessdensethanwater;willfloat"",""Markup"":[{""Start"":46,""Length"":5,""URL"":""https://pubchem.ncbi.nlm.nih.gov/compound/water"",""Type"":""PubChemInternalLink"",""Extra"":""CID-962"
dichloromethane,C(Cl)Cl,-1.31,0.038,"cid is 7762,compound_name is Ethyl butyrate,cid_paras is 7762,Molecular_Weight is 116.16,XLogP3 is 1.3,Hydrogen_Bond_Donor_Count is 0,Hydrogen_Bond_Acceptor_Count is 2,Rotatable_Bond_Count is 4,Exact_Mass is 116.083729621,Monoisotopic_Mass is 116.083729621,Topological_Polar_Surface_Area is 26.3,""Unit"":""Å²"",Heavy_Atom_Count is 8,Formal_Charge is 0,Complexity is 68.9,Isotope_Atom_Count is 0,Defined_Atom_Stereocenter_Count is 0,Undefined_Atom_Stereocenter_Count is 0,Defined_Bond_Stereocenter_Count is 0,Undefined_Bond_Stereocenter_Count is 0,Covalently_Bonded_Unit_Count is 1,Compound_Is_Canonicalized is Yes,Physical_Description is Ethylbutyrateappearsasaclearcolorlessliquidwithapineapple-likeodor.Flashpoint78°F.Lessdensethanwaterandinsolubleinwater.Vaporsheavierthanair."",""Markup"":[{""Start"":0,""Length"":14,""URL"":""https://pubchem.ncbi.nlm.nih.gov/compound/Ethyl%20butyrate"",""Type"":""PubChemInternalLink"",""Extra"":""CID-7762"",Color/Form is Colorlessliquid,Odor is Pineappleodor,Boiling_Point is 250°Fat760mmHg(USCG,1999),Melting_Point is -135°F(USCG,1999),Flash_Point is 75°F(USCG,1999),Solubility is Inwater,4.9X10+3mg/Lat20°C"",""Markup"":[{""Start"":3,""Length"":5,""URL"":""https://pubchem.ncbi.nlm.nih.gov/compound/water"",""Type"":""PubChemInternalLink"",""Extra"":""CID-962,Density is 0.879at68°F(USCG,1999)-Lessdensethanwater;willfloat"",""Markup"":[{""Start"":46,""Length"":5,""URL"":""https://pubchem.ncbi.nlm.nih.gov/compound/water"",""Type"":""PubChemInternalLink"",""Extra"":""CID-962"
"methyl 2,2-dimethylpropanoate",CC(C)(C)C(=O)OC,-2.4,-3.304,"cid is 7813,compound_name is p-Toluidine,cid_paras is 7813,Molecular_Weight is 107.15,XLogP3 is 1.4,Hydrogen_Bond_Donor_Count is 1,Hydrogen_Bond_Acceptor_Count is 1,Rotatable_Bond_Count is 0,Exact_Mass is 107.073499291,Monoisotopic_Mass is 107.073499291,Topological_Polar_Surface_Area is 26,""Unit"":""Å²"",Heavy_Atom_Count is 8,Formal_Charge is 0,Complexity is 62.8,Isotope_Atom_Count is 0,Defined_Atom_Stereocenter_Count is 0,Undefined_Atom_Stereocenter_Count is 0,Defined_Bond_Stereocenter_Count is 0,Undefined_Bond_Stereocenter_Count is 0,Covalently_Bonded_Unit_Count is 1,Compound_Is_Canonicalized is Yes,Physical_Description is P-toluidineisacolorlesssolid.Meltingpoint44°C(111°F).Specificgravity1.046.Vaporheavierthanair.Producestoxicoxidesofnitrogenduringcombustion.Maybeabsorbedthroughtheskin.Usedindyes,andinorganicchemicalmanufacturing."",""Markup"":[{""Start"":0,""Length"":11,""URL"":""https://pubchem.ncbi.nlm.nih.gov/compound/P-toluidine"",""Type"":""PubChemInternalLink"",""Extra"":""CID-7813,Color/Form is Lustrousplatesorleaflets,Odor is Aromatic,wine-likeodor,Boiling_Point is 393°Fat760mmHg(USCG,1999),Melting_Point is 112.1°F(USCG,1999),Flash_Point is 188°F(USCG,1999),Solubility is 0.7%(NIOSH,2024),Density is 1at68°F(USCG,1999)"
trichloro(nitro)methane,C([N+](=O)[O-])(Cl)(Cl)Cl,-1.45,-0.379,"cid is 12527,compound_name is 1-Iodohexane,cid_paras is 12527,Molecular_Weight is 212.07,XLogP3 is 4.2,Hydrogen_Bond_Donor_Count is 0,Hydrogen_Bond_Acceptor_Count is 0,Rotatable_Bond_Count is 4,Exact_Mass is 212.00620,Monoisotopic_Mass is 212.00620,Topological_Polar_Surface_Area is 0,""Unit"":""Å²"",Heavy_Atom_Count is 7,Formal_Charge is 0,Complexity is 27.4,Isotope_Atom_Count is 0,Defined_Atom_Stereocenter_Count is 0,Undefined_Atom_Stereocenter_Count is 0,Defined_Bond_Stereocenter_Count is 0,Undefined_Bond_Stereocenter_Count is 0,Covalently_Bonded_Unit_Count is 1,Compound_Is_Canonicalized is Yes"
sulfolane,C1CC[S+2](C1)([O-])[O-],-8.61,-9.624,"cid is 10326,compound_name is Indan,cid_paras is 10326,Molecular_Weight is 118.18,XLogP3 is 3.2,Hydrogen_Bond_Donor_Count is 0,Hydrogen_Bond_Acceptor_Count is 0,Rotatable_Bond_Count is 0,Exact_Mass is 118.078250319,Monoisotopic_Mass is 118.078250319,Topological_Polar_Surface_Area is 0,""Unit"":""Å²"",Heavy_Atom_Count is 9,Formal_Charge is 0,Complexity is 84.2,Isotope_Atom_Count is 0,Defined_Atom_Stereocenter_Count is 0,Undefined_Atom_Stereocenter_Count is 0,Defined_Bond_Stereocenter_Count is 0,Undefined_Bond_Stereocenter_Count is 0,Covalently_Bonded_Unit_Count is 1,Compound_Is_Canonicalized is Yes,Physical_Description is Liquid;[MerckIndex]Clearlightyellowliquid;[Sigma-AldrichMSDS]"
"2,6-dimethylphenol",Cc1cccc(c1O)C,-5.26,-4.308,"cid is 10541,compound_name is Trimethyl phosphate,cid_paras is 10541,Molecular_Weight is 140.07,XLogP3 is -0.5,Hydrogen_Bond_Donor_Count is 0,Hydrogen_Bond_Acceptor_Count is 4,Rotatable_Bond_Count is 3,Exact_Mass is 140.02384576,Monoisotopic_Mass is 140.02384576,Topological_Polar_Surface_Area is 44.8,""Unit"":""Å²"",Heavy_Atom_Count is 8,Formal_Charge is 0,Complexity is 82.4,Isotope_Atom_Count is 0,Defined_Atom_Stereocenter_Count is 0,Undefined_Atom_Stereocenter_Count is 0,Defined_Bond_Stereocenter_Count is 0,Undefined_Bond_Stereocenter_Count is 0,Covalently_Bonded_Unit_Count is 1,Compound_Is_Canonicalized is Yes,Physical_Description is Trimethylphosphateappearsasapalestrawcoloredliquid.Inhalationmayirritaterespiratorytract.Vapororliquidmayirritateskinoreyes.Ingestionmayirritatethemucousmembranesofthegastrointestinaltract."",""Markup"":[{""Start"":0,""Length"":19,""URL"":""https://pubchem.ncbi.nlm.nih.gov/compound/Trimethyl%20phosphate"",""Type"":""PubChemInternalLink"",""Extra"":""CID-10541,Color/Form is Liquid,Odor is Pleasantsmelling,Boiling_Point is 387°Fat760mmHg(NTP,1992),Melting_Point is -51°F(NTP,1992),Flash_Point is greaterthan300°F(NTP,1992),Solubility is greaterthanorequalto100mg/mLat68°F(NTP,1992),Density is 1.2144at68°F(NTP,1992)-Denserthanwater;willsink"",""Markup"":[{""Start"":42,""Length"":5,""URL"":""https://pubchem.ncbi.nlm.nih.gov/compound/water"",""Type"":""PubChemInternalLink"",""Extra"":""CID-962"
m-cresol,Cc1cccc(c1)O,-5.49,-5.378,"cid is 10943,compound_name is 1,3-Dichlorobenzene,cid_paras is 10943,Molecular_Weight is 147.00,XLogP3 is 3.5,Hydrogen_Bond_Donor_Count is 0,Hydrogen_Bond_Acceptor_Count is 0,Rotatable_Bond_Count is 0,Exact_Mass is 145.9690055,Monoisotopic_Mass is 145.9690055,Topological_Polar_Surface_Area is 0,""Unit"":""Å²"",Heavy_Atom_Count is 8,Formal_Charge is 0,Complexity is 64.9,Isotope_Atom_Count is 0,Defined_Atom_Stereocenter_Count is 0,Undefined_Atom_Stereocenter_Count is 0,Defined_Bond_Stereocenter_Count is 0,Undefined_Bond_Stereocenter_Count is 0,Covalently_Bonded_Unit_Count is 1,Compound_Is_Canonicalized is Yes,Physical_Description is M-dichlorobenzeneisacolorlessliquid.Sinksinwater.(USCG,1999)"",""Markup"":[{""Start"":0,""Length"":17,""URL"":""https://pubchem.ncbi.nlm.nih.gov/compound/M-dichlorobenzene"",""Type"":""PubChemInternalLink"",""Extra"":""CID-10943"",Color/Form is Colorlessliquid,Boiling_Point is 343°Fat760mmHg(NTP,1992),Melting_Point is -12.6°F(NTP,1992),Flash_Point is 146°F(NTP,1992),Solubility is lessthan1mg/mLat70°F(NTP,1992),Density is 1.2884at68°F(USCG,1999)-Denserthanwater;willsink"",""Markup"":[{""Start"":43,""Length"":5,""URL"":""https://pubchem.ncbi.nlm.nih.gov/compound/water"",""Type"":""PubChemInternalLink"",""Extra"":""CID-962"
"1-amino-4-hydroxy-9,10-anthracenedione",c1ccc2c(c1)C(=O)c3c(ccc(c3C2=O)O)N,-9.53,-10.984,"cid is 11327,compound_name is 1,3-Dimethylnaphthalene,cid_paras is 11327,Molecular_Weight is 156.22,XLogP3 is 4.4,Hydrogen_Bond_Donor_Count is 0,Hydrogen_Bond_Acceptor_Count is 0,Rotatable_Bond_Count is 0,Exact_Mass is 156.093900383,Monoisotopic_Mass is 156.093900383,Topological_Polar_Surface_Area is 0,""Unit"":""Å²"",Heavy_Atom_Count is 12,Formal_Charge is 0,Complexity is 150,Isotope_Atom_Count is 0,Defined_Atom_Stereocenter_Count is 0,Undefined_Atom_Stereocenter_Count is 0,Defined_Bond_Stereocenter_Count is 0,Undefined_Bond_Stereocenter_Count is 0,Covalently_Bonded_Unit_Count is 1,Compound_Is_Canonicalized is Yes,Physical_Description is Clear,lightyellowliquid;[AldrichMSDS]"