iupac,smiles,expt,calc,Description
cyclohexanol,C1CCC(CC1)O,-5.46,-4.178,"cid is 20848,compound_name is Nitralin,cid_paras is 20848,Molecular_Weight is 345.37,XLogP3 is 3.7,Hydrogen_Bond_Donor_Count is 0,Hydrogen_Bond_Acceptor_Count is 7,Rotatable_Bond_Count is 6,Exact_Mass is 345.09945651,Monoisotopic_Mass is 345.09945651,Topological_Polar_Surface_Area is 137,""Unit"":""Å²"",Heavy_Atom_Count is 23,Formal_Charge is 0,Complexity is 491,Isotope_Atom_Count is 0,Defined_Atom_Stereocenter_Count is 0,Undefined_Atom_Stereocenter_Count is 0,Defined_Bond_Stereocenter_Count is 0,Undefined_Bond_Stereocenter_Count is 0,Covalently_Bonded_Unit_Count is 1,Compound_Is_Canonicalized is Yes,Physical_Description is Nitralinisalightyellowtoorangesolidwithamildodor.Sinksinwater.(USCG,1999)"",""Markup"":[{""Start"":0,""Length"":8,""URL"":""https://pubchem.ncbi.nlm.nih.gov/compound/Nitralin"",""Type"":""PubChemInternalLink"",""Extra"":""CID-20848"",Color/Form is GOLDEN-ORANGECRYSTALLINESOLID,Odor is MILDCHEMICALODOR,Boiling_Point is greaterthan437°Fat760mmHg(decomposes)(USCG,1999),Melting_Point is 304°F(USCG,1999),Solubility is SOLUBILITY@22°C:0.6MG/LINWATER;360G/LINACETONE;330G/LINDIMETHYLSULFOXIDE;POORLYSOLINCOMMONHYDROCARBONANDAROMATICSOLVENTSANDINCOMMONALCOHOLS"",""Markup"":[{""Start"":32,""Length"":5,""URL"":""https://pubchem.ncbi.nlm.nih.gov/compound/WATER"",""Type"":""PubChemInternalLink"",""Extra"":""CID-962"",Density is greaterthan1at68°F(est)(USCG,1999)"
Amitriptyline,CN(C)CCC=C1c2ccccc2CCc3c1cccc3,-7.43,-7.349,"cid is 6338,compound_name is Vinyl Chloride,cid_paras is 6338,Molecular_Weight is 62.50,XLogP3 is 1.5,Hydrogen_Bond_Donor_Count is 0,Hydrogen_Bond_Acceptor_Count is 0,Rotatable_Bond_Count is 0,Exact_Mass is 61.9923278,Monoisotopic_Mass is 61.9923278,Topological_Polar_Surface_Area is 0,""Unit"":""Å²"",Heavy_Atom_Count is 3,Formal_Charge is 0,Complexity is 10.3,Isotope_Atom_Count is 0,Defined_Atom_Stereocenter_Count is 0,Undefined_Atom_Stereocenter_Count is 0,Defined_Bond_Stereocenter_Count is 0,Undefined_Bond_Stereocenter_Count is 0,Covalently_Bonded_Unit_Count is 1,Compound_Is_Canonicalized is Yes,Physical_Description is Vinylchlorideappearsasacolorlessgaswithasweetodor.Easilyignited.Shippedasaliquefiedgasunderownvaporpressure.Contactwiththeunconfinedliquidmaycausefrostbitebyevaporativecooling.Leaksmaybeliquidorvapor.Vaporsareheavierthanair.Mayasphyxiatebythedisplacementofair.Underprolongedexposuretofireorintenseheatthecontainersmayruptureviolentlyandrocket.Suspectedcarcinogen.Usedtomakeplastics,adhesives,andotherchemicals."",""Markup"":[{""Start"":0,""Length"":14,""URL"":""https://pubchem.ncbi.nlm.nih.gov/compound/Vinyl%20chloride"",""Type"":""PubChemInternalLink"",""Extra"":""CID-6338,Color/Form is Colorlessgasorliquid(below77degreesF)[Note:Shippedasaliquefiedcompressedgas],Odor is Etherealodor,Boiling_Point is 7°Fat760mmHg(NTP,1992),Melting_Point is -245°F(NTP,1992),Flash_Point is -110°F(NTP,1992),Solubility is Slightlysoluble(NTP,1992),Density is 0.969at8.6°F(USCG,1999)-Lessdensethanwater;willfloat"",""Markup"":[{""Start"":47,""Length"":5,""URL"":""https://pubchem.ncbi.nlm.nih.gov/compound/water"",""Type"":""PubChemInternalLink"",""Extra"":""CID-962"
4-fluorophenol,c1cc(ccc1O)F,-6.19,-4.955,"cid is 84179,compound_name is Benzamide, N,N,4-trimethyl-,cid_paras is 84179,Molecular_Weight is 163.22,XLogP3 is 1,Hydrogen_Bond_Donor_Count is 0,Hydrogen_Bond_Acceptor_Count is 1,Rotatable_Bond_Count is 1,Exact_Mass is 163.099714038,Monoisotopic_Mass is 163.099714038,Topological_Polar_Surface_Area is 20.3,""Unit"":""Å²"",Heavy_Atom_Count is 12,Formal_Charge is 0,Complexity is 157,Isotope_Atom_Count is 0,Defined_Atom_Stereocenter_Count is 0,Undefined_Atom_Stereocenter_Count is 0,Defined_Bond_Stereocenter_Count is 0,Undefined_Bond_Stereocenter_Count is 0,Covalently_Bonded_Unit_Count is 1,Compound_Is_Canonicalized is Yes"
2-chloroaniline,c1ccc(c(c1)N)Cl,-4.91,-4.847,"cid is 31246,compound_name is 4-Heptanone,cid_paras is 31246,Molecular_Weight is 114.19,XLogP3 is 1.6,Hydrogen_Bond_Donor_Count is 0,Hydrogen_Bond_Acceptor_Count is 1,Rotatable_Bond_Count is 4,Exact_Mass is 114.104465066,Monoisotopic_Mass is 114.104465066,Topological_Polar_Surface_Area is 17.1,""Unit"":""Å²"",Heavy_Atom_Count is 8,Formal_Charge is 0,Complexity is 58.8,Isotope_Atom_Count is 0,Defined_Atom_Stereocenter_Count is 0,Undefined_Atom_Stereocenter_Count is 0,Defined_Bond_Stereocenter_Count is 0,Undefined_Bond_Stereocenter_Count is 0,Covalently_Bonded_Unit_Count is 1,Compound_Is_Canonicalized is Yes,Physical_Description is Dipropylketoneappearsasacolorlessliquidwithapleasantodor.Insolubleinwaterandlessdensethanwater.Flashpoint120°F.Toxicbyinhalation.Askinirritant.Usedtomakeflavoringsandasasolvent."",""Markup"":[{""Start"":0,""Length"":15,""URL"":""https://pubchem.ncbi.nlm.nih.gov/compound/Dipropyl%20ketone"",""Type"":""PubChemInternalLink"",""Extra"":""CID-31246"",Color/Form is Stable,colorlessliquid,Odor is Pleasantodor,Boiling_Point is 291°Fat760mmHg(NIOSH,2024),Melting_Point is -27°F(NIOSH,2024),Flash_Point is 120°F(NIOSH,2024),Solubility is Insoluble(NIOSH,2024),Density is 0.82(NIOSH,2024)-Lessdensethanwater;willfloat"",""Markup"":[{""Start"":37,""Length"":5,""URL"":""https://pubchem.ncbi.nlm.nih.gov/compound/water"",""Type"":""PubChemInternalLink"",""Extra"":""CID-962"
"1,2,4-trimethylbenzene",Cc1ccc(c(c1)C)C,-0.86,-0.795,"cid is 7150,compound_name is Methyl benzoate,cid_paras is 7150,Molecular_Weight is 136.15,XLogP3 is 2.1,Hydrogen_Bond_Donor_Count is 0,Hydrogen_Bond_Acceptor_Count is 2,Rotatable_Bond_Count is 2,Exact_Mass is 136.052429494,Monoisotopic_Mass is 136.052429494,Topological_Polar_Surface_Area is 26.3,""Unit"":""Å²"",Heavy_Atom_Count is 10,Formal_Charge is 0,Complexity is 114,Isotope_Atom_Count is 0,Defined_Atom_Stereocenter_Count is 0,Undefined_Atom_Stereocenter_Count is 0,Defined_Bond_Stereocenter_Count is 0,Undefined_Bond_Stereocenter_Count is 0,Covalently_Bonded_Unit_Count is 1,Compound_Is_Canonicalized is Yes,Physical_Description is Methylbenzoateappearsasacrystallinesolidorasoliddissolvedinaliquid.Denserthanwater.Contactmayslightlyirritateskin,eyesandmucousmembranes.Maybeslightlytoxicbyingestion.Usedtomakeotherchemicals."",""Markup"":[{""Start"":0,""Length"":15,""URL"":""https://pubchem.ncbi.nlm.nih.gov/compound/Methyl%20benzoate"",""Type"":""PubChemInternalLink"",""Extra"":""CID-7150"",Color/Form is Colorless,transparentliquid,Odor is Fragrantodor,Boiling_Point is 388to390°Fat760mmHg(NTP,1992),Melting_Point is 10°F(NTP,1992),Flash_Point is 181°F(NTP,1992),Solubility is lessthan1mg/mLat72.5°F(NTP,1992),Density is 1.0888at68°F(USCG,1999)-Denserthanwater;willsink"",""Markup"":[{""Start"":43,""Length"":5,""URL"":""https://pubchem.ncbi.nlm.nih.gov/compound/water"",""Type"":""PubChemInternalLink"",""Extra"":""CID-962"
1-ethyl-2-methylbenzene,CCc1ccccc1C,-0.85,-0.761,"cid is 7725,compound_name is 4-Methylbenzaldehyde,cid_paras is 7725,Molecular_Weight is 120.15,XLogP3 is 2.1,Hydrogen_Bond_Donor_Count is 0,Hydrogen_Bond_Acceptor_Count is 1,Rotatable_Bond_Count is 1,Exact_Mass is 120.057514874,Monoisotopic_Mass is 120.057514874,Topological_Polar_Surface_Area is 17.1,""Unit"":""Å²"",Heavy_Atom_Count is 9,Formal_Charge is 0,Complexity is 90.7,Isotope_Atom_Count is 0,Defined_Atom_Stereocenter_Count is 0,Undefined_Atom_Stereocenter_Count is 0,Defined_Bond_Stereocenter_Count is 0,Undefined_Bond_Stereocenter_Count is 0,Covalently_Bonded_Unit_Count is 1,Compound_Is_Canonicalized is Yes,Physical_Description is Liquid,Color/Form is COLORLESSLIQUID,Odor is Floralodor,Boiling_Point is 204°C,Melting_Point is -6°C,Solubility is Misciblewithethanol,ethylether,acetone;verysolubleinchloroform"",""Markup"":[{""Start"":14,""Length"":7,""URL"":""https://pubchem.ncbi.nlm.nih.gov/compound/ethanol"",""Type"":""PubChemInternalLink"",""Extra"":""CID-702"",Density is 1.0194g/cucmat17°C"
"(2R,5R)-2-methyl-5-(1-methylethenyl)-cyclohexanone",C[C@@H]1CC[C@H](CC1=O)C(=C)C,-3.75,-3.344,"cid is 7770,compound_name is Propyl butyrate,cid_paras is 7770,Molecular_Weight is 130.18,XLogP3 is 1.8,Hydrogen_Bond_Donor_Count is 0,Hydrogen_Bond_Acceptor_Count is 2,Rotatable_Bond_Count is 5,Exact_Mass is 130.099379685,Monoisotopic_Mass is 130.099379685,Topological_Polar_Surface_Area is 26.3,""Unit"":""Å²"",Heavy_Atom_Count is 9,Formal_Charge is 0,Complexity is 79,Isotope_Atom_Count is 0,Defined_Atom_Stereocenter_Count is 0,Undefined_Atom_Stereocenter_Count is 0,Defined_Bond_Stereocenter_Count is 0,Undefined_Bond_Stereocenter_Count is 0,Covalently_Bonded_Unit_Count is 1,Compound_Is_Canonicalized is Yes,Physical_Description is Clearcolorlessliquid;[AldrichMSDS],Boiling_Point is 142.00to143.00°C.@760.00mmHg,Melting_Point is -95.2°C,Solubility is 1.62mg/mLat17°C,Density is 0.866-0.875"
biphenyl,c1ccc(cc1)c2ccccc2,-2.7,-3.143,"cid is 4837,compound_name is Piperazine,cid_paras is 4837,Molecular_Weight is 86.14,XLogP3 is -1.5,Hydrogen_Bond_Donor_Count is 2,Hydrogen_Bond_Acceptor_Count is 2,Rotatable_Bond_Count is 0,Exact_Mass is 86.084398327,Monoisotopic_Mass is 86.084398327,Topological_Polar_Surface_Area is 24.1,""Unit"":""Å²"",Heavy_Atom_Count is 6,Formal_Charge is 0,Complexity is 26.5,Isotope_Atom_Count is 0,Defined_Atom_Stereocenter_Count is 0,Undefined_Atom_Stereocenter_Count is 0,Defined_Bond_Stereocenter_Count is 0,Undefined_Bond_Stereocenter_Count is 0,Covalently_Bonded_Unit_Count is 1,Compound_Is_Canonicalized is Yes,Physical_Description is Needle-likewhiteorcolorlesscrystals.Shippedasasolidorsuspendedinaliquidmedium.Verycorrosivetoskin,eyesandmucousmembranes.Solidturnsdarkwhenexposedtolight.Flashpoint190°F.Usedasacorrosioninhibitorandasaninsecticide.,Color/Form is Platesorleafletsfromethanol"",""Markup"":[{""Start"":24,""Length"":7,""URL"":""https://pubchem.ncbi.nlm.nih.gov/compound/ethanol"",""Type"":""PubChemInternalLink"",""Extra"":""CID-702,Odor is Typicalamineodor,Boiling_Point is 295°Fat760mmHg(NTP,1992),Melting_Point is 223°F(NTP,1992),Flash_Point is 190°F(NTP,1992),Solubility is Verysoluble(NTP,1992),Density is 1.1at68°F(NTP,1992)-Denserthanwater;willsink"",""Markup"":[{""Start"":39,""Length"":5,""URL"":""https://pubchem.ncbi.nlm.nih.gov/compound/water"",""Type"":""PubChemInternalLink"",""Extra"":""CID-962"
"2,3-dimethylphenol",Cc1cccc(c1C)O,-6.16,-5.148,"cid is 86308705,compound_name is 2-[(1S)-2-chloro-1-diethoxyphosphinothioylsulfanylethyl]isoindole-1,3-dione,cid_paras is 86308705,Molecular_Weight is 393.8,XLogP3 is 3.8,Hydrogen_Bond_Donor_Count is 0,Hydrogen_Bond_Acceptor_Count is 6,Rotatable_Bond_Count is 8,Exact_Mass is 393.0025151,Monoisotopic_Mass is 393.0025151,Topological_Polar_Surface_Area is 113,""Unit"":""Å²"",Heavy_Atom_Count is 23,Formal_Charge is 0,Complexity is 473,Isotope_Atom_Count is 0,Defined_Atom_Stereocenter_Count is 1,Undefined_Atom_Stereocenter_Count is 0,Defined_Bond_Stereocenter_Count is 0,Undefined_Bond_Stereocenter_Count is 0,Covalently_Bonded_Unit_Count is 1,Compound_Is_Canonicalized is Yes"
methylparathion,COP(=S)(OC)Oc1ccc(cc1)[N+](=O)[O-],-7.19,-10.466,"cid is 8076,compound_name is 2-Ethoxyethanol,cid_paras is 8076,Molecular_Weight is 90.12,XLogP3 is -0.3,Hydrogen_Bond_Donor_Count is 1,Hydrogen_Bond_Acceptor_Count is 2,Rotatable_Bond_Count is 3,Exact_Mass is 90.068079557,Monoisotopic_Mass is 90.068079557,Topological_Polar_Surface_Area is 29.5,""Unit"":""Å²"",Heavy_Atom_Count is 6,Formal_Charge is 0,Complexity is 21.5,Isotope_Atom_Count is 0,Defined_Atom_Stereocenter_Count is 0,Undefined_Atom_Stereocenter_Count is 0,Defined_Bond_Stereocenter_Count is 0,Undefined_Bond_Stereocenter_Count is 0,Covalently_Bonded_Unit_Count is 1,Compound_Is_Canonicalized is Yes,Physical_Description is Ethyleneglycolmonoethyletherappearsasaclearcolorlessliquid.Flashpointof120°F.Lessdensethanwater.Itsvaporsareheavierthanair."",""Markup"":[{""Start"":0,""Length"":31,""URL"":""https://pubchem.ncbi.nlm.nih.gov/compound/Ethylene%20glycol%20monoethyl%20ether"",""Type"":""PubChemInternalLink"",""Extra"":""CID-8076"",Color/Form is Colorlessliquid,Odor is Sweet,pleasant,ether-likeodor,Boiling_Point is 275°Fat760mmHg(NTP,1992),Melting_Point is -94°F(NTP,1992),Flash_Point is 105°F(NTP,1992),Solubility is greaterthanorequalto100mg/mLat64°F(NTP,1992),Density is 0.931at68°F(USCG,1999)-Lessdensethanwater;willfloat"",""Markup"":[{""Start"":46,""Length"":5,""URL"":""https://pubchem.ncbi.nlm.nih.gov/compound/water"",""Type"":""PubChemInternalLink"",""Extra"":""CID-962"
diethoxy-(4-nitrophenoxy)-thioxo-$l^{5}-phosphane,CCOP(=S)(OCC)Oc1ccc(cc1)[N+](=O)[O-],-6.74,-9.211,"cid is 7282,compound_name is 3-Methylpentane,cid_paras is 7282,Molecular_Weight is 86.18,XLogP3 is 3.2,Hydrogen_Bond_Donor_Count is 0,Hydrogen_Bond_Acceptor_Count is 0,Rotatable_Bond_Count is 2,Exact_Mass is 86.109550447,Monoisotopic_Mass is 86.109550447,Topological_Polar_Surface_Area is 0,""Unit"":""Å²"",Heavy_Atom_Count is 6,Formal_Charge is 0,Complexity is 19.2,Isotope_Atom_Count is 0,Defined_Atom_Stereocenter_Count is 0,Undefined_Atom_Stereocenter_Count is 0,Defined_Bond_Stereocenter_Count is 0,Undefined_Bond_Stereocenter_Count is 0,Covalently_Bonded_Unit_Count is 1,Compound_Is_Canonicalized is Yes,Physical_Description is Liquid;GasorVapor,Liquid,Color/Form is Colorlessliquid,Boiling_Point is 63.271°C,Melting_Point is -162.9°C,Flash_Point is -6.6°C,Solubility is Solinethanol,carbontetrachloride;miscibleinether,acetone,benzene,heptane"",""Markup"":[{""Start"":7,""Length"":7,""URL"":""https://pubchem.ncbi.nlm.nih.gov/compound/ethanol"",""Type"":""PubChemInternalLink"",""Extra"":""CID-702"",Density is 0.66431g/cucmat20°C;0.65976g/cucmat25°C"
"1-N,1-N-diethyl-2,6-dinitro-4-(trifluoromethyl)benzene-1,3-diamine",CCN(CC)c1c(cc(c(c1[N+](=O)[O-])N)C(F)(F)F)[N+](=O)[O-],-5.66,-7.503,"cid is 7976,compound_name is 2-Methylpyrazine,cid_paras is 7976,Molecular_Weight is 94.11,XLogP3 is 0.2,Hydrogen_Bond_Donor_Count is 0,Hydrogen_Bond_Acceptor_Count is 2,Rotatable_Bond_Count is 0,Exact_Mass is 94.053098200,Monoisotopic_Mass is 94.053098200,Topological_Polar_Surface_Area is 25.8,""Unit"":""Å²"",Heavy_Atom_Count is 7,Formal_Charge is 0,Complexity is 54,Isotope_Atom_Count is 0,Defined_Atom_Stereocenter_Count is 0,Undefined_Atom_Stereocenter_Count is 0,Defined_Bond_Stereocenter_Count is 0,Undefined_Bond_Stereocenter_Count is 0,Covalently_Bonded_Unit_Count is 1,Compound_Is_Canonicalized is Yes,Physical_Description is Colorlessliquid;[AlfaAesarMSDS],Boiling_Point is 135.00°C.@761.00mmHg,Melting_Point is -29°C,Solubility is 1000mg/mLat20°C,Density is 1.007-1.033"
methylsulfanylmethane,CSC,-1.61,0.44,"cid is 7903,compound_name is 1-Nitropropane,cid_paras is 7903,Molecular_Weight is 89.09,XLogP3 is 0.9,Hydrogen_Bond_Donor_Count is 0,Hydrogen_Bond_Acceptor_Count is 2,Rotatable_Bond_Count is 1,Exact_Mass is 89.047678466,Monoisotopic_Mass is 89.047678466,Topological_Polar_Surface_Area is 45.8,""Unit"":""Å²"",Heavy_Atom_Count is 6,Formal_Charge is 0,Complexity is 47.2,Isotope_Atom_Count is 0,Defined_Atom_Stereocenter_Count is 0,Undefined_Atom_Stereocenter_Count is 0,Defined_Bond_Stereocenter_Count is 0,Undefined_Bond_Stereocenter_Count is 0,Covalently_Bonded_Unit_Count is 1,Compound_Is_Canonicalized is Yes,Physical_Description is 1-nitropropaneappearsasacolorlessoilyflammableliquid.Densityaboutthesameaswater.Vaporsmuchheavierthanair.Vaporsmayirritateskin,eyesandmucousmembranes.Toxicoxidesofnitrogenarereleasedduringcombustion.Usedasapropellantandasasolvent."",""Markup"":[{""Start"":0,""Length"":14,""URL"":""https://pubchem.ncbi.nlm.nih.gov/compound/1-nitropropane"",""Type"":""PubChemInternalLink"",""Extra"":""CID-7903"",Color/Form is Liquid,Odor is Somewhatdisagreeableodor,Boiling_Point is 270°Fat760mmHg(NTP,1992),Melting_Point is -162°F(NTP,1992),Flash_Point is 93°F(NTP,1992),Solubility is Slightlysoluble(NTP,1992),Density is 0.9934at77°F(USCG,1999)-Lessdensethanwater;willfloat"",""Markup"":[{""Start"":47,""Length"":5,""URL"":""https://pubchem.ncbi.nlm.nih.gov/compound/water"",""Type"":""PubChemInternalLink"",""Extra"":""CID-962"
ketoprofen,C[C@@H](c1cccc(c1)C(=O)c2ccccc2)C(=O)O,-10.78,-17.242,"cid is 7947,compound_name is Mesitylene,cid_paras is 7947,Molecular_Weight is 120.19,XLogP3 is 3.4,Hydrogen_Bond_Donor_Count is 0,Hydrogen_Bond_Acceptor_Count is 0,Rotatable_Bond_Count is 0,Exact_Mass is 120.093900383,Monoisotopic_Mass is 120.093900383,Topological_Polar_Surface_Area is 0,""Unit"":""Å²"",Heavy_Atom_Count is 9,Formal_Charge is 0,Complexity is 55,Isotope_Atom_Count is 0,Defined_Atom_Stereocenter_Count is 0,Undefined_Atom_Stereocenter_Count is 0,Defined_Bond_Stereocenter_Count is 0,Undefined_Bond_Stereocenter_Count is 0,Covalently_Bonded_Unit_Count is 1,Compound_Is_Canonicalized is Yes,Physical_Description is 1,3,5-trimethylbenzeneappearsasacolorlessliquidwithapeculiarodor.Insolubleinwaterandlessdensethanwater.Flashpointnear123°F.Maybetoxicbyingestionandinhalation.Usedtomakeplasticsanddyes."",""Markup"":[{""Start"":0,""Length"":22,""URL"":""https://pubchem.ncbi.nlm.nih.gov/compound/1%2C3%2C5-trimethylbenzene"",""Type"":""PubChemInternalLink"",""Extra"":""CID-20184178"",Color/Form is Clear,colorlessliquid,Odor is Peculiarodor,Boiling_Point is 329°Fat760mmHg(NIOSH,2024),Melting_Point is -49°F(NIOSH,2024),Flash_Point is 122°F(NIOSH,2024),Solubility is 0.002%(NIOSH,2024),Density is 0.86(NIOSH,2024)-Lessdensethanwater;willfloat"",""Markup"":[{""Start"":37,""Length"":5,""URL"":""https://pubchem.ncbi.nlm.nih.gov/compound/water"",""Type"":""PubChemInternalLink"",""Extra"":""CID-962"
cyclopentanol,C1CCC(C1)O,-5.49,-4.29,"cid is 3385,compound_name is Fluorouracil,cid_paras is 3385,Molecular_Weight is 130.08,XLogP3 is -0.9,Hydrogen_Bond_Donor_Count is 2,Hydrogen_Bond_Acceptor_Count is 3,Rotatable_Bond_Count is 0,Exact_Mass is 130.01785550,Monoisotopic_Mass is 130.01785550,Topological_Polar_Surface_Area is 58.2,""Unit"":""Å²"",Heavy_Atom_Count is 9,Formal_Charge is 0,Complexity is 199,Isotope_Atom_Count is 0,Defined_Atom_Stereocenter_Count is 0,Undefined_Atom_Stereocenter_Count is 0,Defined_Bond_Stereocenter_Count is 0,Undefined_Bond_Stereocenter_Count is 0,Covalently_Bonded_Unit_Count is 1,Compound_Is_Canonicalized is Yes,Physical_Description is Fluorouracilisawhitetonearlywhitecrystallinepowder;practicallyodorless.Usedasanantineoplasticdrug,chemosterilantforinsects.(EPA,1998)"",""Markup"":[{""Start"":0,""Length"":12,""URL"":""https://pubchem.ncbi.nlm.nih.gov/compound/Fluorouracil"",""Type"":""PubChemInternalLink"",""Extra"":""CID-3385,Color/Form is Whitetopracticallywhitecrystallinepowder,Odor is PRACTICALLYODORLESS,Boiling_Point is Decomposesat282-283°C;sublimes(0.1mm):190-200°C,Melting_Point is Decomposesat540-541°F(EPA,1998),Solubility is lessthan1mg/mLat66°F(NTP,1992)"