iupac,smiles,expt,calc,Description
4-methyl-1H-imidazole,Cc1c[nH]cn1,-10.27,-8.205,"cid is 14215,compound_name is Pebulate,cid_paras is 14215,Molecular_Weight is 203.35,XLogP3 is 3.8,Hydrogen_Bond_Donor_Count is 0,Hydrogen_Bond_Acceptor_Count is 2,Rotatable_Bond_Count is 7,Exact_Mass is 203.13438547,Monoisotopic_Mass is 203.13438547,Topological_Polar_Surface_Area is 45.6,""Unit"":""Å²"",Heavy_Atom_Count is 13,Formal_Charge is 0,Complexity is 139,Isotope_Atom_Count is 0,Defined_Atom_Stereocenter_Count is 0,Undefined_Atom_Stereocenter_Count is 0,Defined_Bond_Stereocenter_Count is 0,Undefined_Bond_Stereocenter_Count is 0,Covalently_Bonded_Unit_Count is 1,Compound_Is_Canonicalized is Yes,Physical_Description is Pebulateisacolorlesstoyellowliquidwitharomaticodor.Noncorrosive.Usedasanherbicide."",""Markup"":[{""Start"":0,""Length"":8,""URL"":""https://pubchem.ncbi.nlm.nih.gov/compound/Pebulate"",""Type"":""PubChemInternalLink"",""Extra"":""CID-14215,Color/Form is Colorlessoryellowliquid,Odor is Aromaticodor,Boiling_Point is 142°Cat20mmHg,Flash_Point is 124°F(OPENCUP),Solubility is Verysolubleinacetone,benzene,methanol"",""Markup"":[{""Start"":16,""Length"":7,""URL"":""https://pubchem.ncbi.nlm.nih.gov/compound/acetone"",""Type"":""PubChemInternalLink"",""Extra"":""CID-180"",Density is 0.9458at30°C/4°C"
1-methyl-3-nitro-benzene,Cc1cccc(c1)[N+](=O)[O-],-3.45,-3.278,"cid is 11610,compound_name is 1-Heptene,cid_paras is 11610,Molecular_Weight is 98.19,XLogP3 is 4,Hydrogen_Bond_Donor_Count is 0,Hydrogen_Bond_Acceptor_Count is 0,Rotatable_Bond_Count is 4,Exact_Mass is 98.109550447,Monoisotopic_Mass is 98.109550447,Topological_Polar_Surface_Area is 0,""Unit"":""Å²"",Heavy_Atom_Count is 7,Formal_Charge is 0,Complexity is 37.3,Isotope_Atom_Count is 0,Defined_Atom_Stereocenter_Count is 0,Undefined_Atom_Stereocenter_Count is 0,Defined_Bond_Stereocenter_Count is 0,Undefined_Bond_Stereocenter_Count is 0,Covalently_Bonded_Unit_Count is 1,Compound_Is_Canonicalized is Yes,Physical_Description is N-hepteneappearsasacolorlessliquid.Insolubleinwaterandmuchlessdensethanwater.Vaporsheavierthanair.Usedtomakeotherchemicals."",""Markup"":[{""Start"":0,""Length"":9,""URL"":""https://pubchem.ncbi.nlm.nih.gov/compound/N-heptene"",""Type"":""PubChemInternalLink"",""Extra"":""CID-11610"",Color/Form is Colorlessliquid,Boiling_Point is 200.5°Fat760mmHg(USCG,1999),Melting_Point is -182°F(USCG,1999),Flash_Point is 25°F(USCG,1999),Solubility is Solubleinethanolandether;slightlysolubleincarbontetrachloride"",""Markup"":[{""Start"":11,""Length"":7,""URL"":""https://pubchem.ncbi.nlm.nih.gov/compound/ethanol"",""Type"":""PubChemInternalLink"",""Extra"":""CID-702"",Density is 0.697at68°F(USCG,1999)-Lessdensethanwater;willfloat"",""Markup"":[{""Start"":46,""Length"":5,""URL"":""https://pubchem.ncbi.nlm.nih.gov/compound/water"",""Type"":""PubChemInternalLink"",""Extra"":""CID-962"
"1,4-dichlorobutane",C(CCCl)CCl,-2.32,-0.404,"cid is 12257,compound_name is Isopropyl formate,cid_paras is 12257,Molecular_Weight is 88.11,XLogP3 is 0.9,Hydrogen_Bond_Donor_Count is 0,Hydrogen_Bond_Acceptor_Count is 2,Rotatable_Bond_Count is 2,Exact_Mass is 88.052429494,Monoisotopic_Mass is 88.052429494,Topological_Polar_Surface_Area is 26.3,""Unit"":""Å²"",Heavy_Atom_Count is 6,Formal_Charge is 0,Complexity is 40.8,Isotope_Atom_Count is 0,Defined_Atom_Stereocenter_Count is 0,Undefined_Atom_Stereocenter_Count is 0,Defined_Bond_Stereocenter_Count is 0,Undefined_Bond_Stereocenter_Count is 0,Covalently_Bonded_Unit_Count is 1,Compound_Is_Canonicalized is Yes,Physical_Description is Colorlessliquidwithapleasantodor;[HSDB],Color/Form is Colorlessliquid,Odor is Pleasantodor,Boiling_Point is 68.2°Cat760mmHg,Melting_Point is -80°C,Flash_Point is 22°F(closedcup),Solubility is Slightlysolinwater,Density is 0.8728at20°C/4°C"
nitroxyacetone,CC(=O)CO[N+](=O)[O-],-5.99,-5.362,"cid is 222536,compound_name is Ethylidene diacetate,cid_paras is 222536,Molecular_Weight is 146.14,XLogP3 is 0.5,Hydrogen_Bond_Donor_Count is 0,Hydrogen_Bond_Acceptor_Count is 4,Rotatable_Bond_Count is 4,Exact_Mass is 146.05790880,Monoisotopic_Mass is 146.05790880,Topological_Polar_Surface_Area is 52.6,""Unit"":""Å²"",Heavy_Atom_Count is 10,Formal_Charge is 0,Complexity is 125,Isotope_Atom_Count is 0,Defined_Atom_Stereocenter_Count is 0,Undefined_Atom_Stereocenter_Count is 0,Defined_Bond_Stereocenter_Count is 0,Undefined_Bond_Stereocenter_Count is 0,Covalently_Bonded_Unit_Count is 1,Compound_Is_Canonicalized is Yes"
tert-butylbenzene,CC(C)(C)c1ccccc1,-0.44,-0.803,"cid is 15758,compound_name is 5-Chlorouracil,cid_paras is 15758,Molecular_Weight is 146.53,XLogP3 is -0.3,Hydrogen_Bond_Donor_Count is 2,Hydrogen_Bond_Acceptor_Count is 2,Rotatable_Bond_Count is 0,Exact_Mass is 145.9883050,Monoisotopic_Mass is 145.9883050,Topological_Polar_Surface_Area is 58.2,""Unit"":""Å²"",Heavy_Atom_Count is 9,Formal_Charge is 0,Complexity is 199,Isotope_Atom_Count is 0,Defined_Atom_Stereocenter_Count is 0,Undefined_Atom_Stereocenter_Count is 0,Defined_Bond_Stereocenter_Count is 0,Undefined_Bond_Stereocenter_Count is 0,Covalently_Bonded_Unit_Count is 1,Compound_Is_Canonicalized is Yes"
methyl hexanoate,CCCCCC(=O)OC,-2.49,-3.299,"cid is 7407,compound_name is alpha-Methylstyrene,cid_paras is 7407,Molecular_Weight is 118.18,XLogP3 is 3.5,Hydrogen_Bond_Donor_Count is 0,Hydrogen_Bond_Acceptor_Count is 0,Rotatable_Bond_Count is 1,Exact_Mass is 118.078250319,Monoisotopic_Mass is 118.078250319,Topological_Polar_Surface_Area is 0,""Unit"":""Å²"",Heavy_Atom_Count is 9,Formal_Charge is 0,Complexity is 96.6,Isotope_Atom_Count is 0,Defined_Atom_Stereocenter_Count is 0,Undefined_Atom_Stereocenter_Count is 0,Defined_Bond_Stereocenter_Count is 0,Undefined_Bond_Stereocenter_Count is 0,Covalently_Bonded_Unit_Count is 1,Compound_Is_Canonicalized is Yes,Physical_Description is Isopropenylbenzeneappearsasacolorlessliquid.Insolubleinwaterandlessdensethanwater.Flashpoint115°F.Maybemildlytoxicbyingestion,inhalationandskinabsorption.Vaporsmaybenarcoticbyinhalation.Usedasasolventandtomakeotherchemicals."",""Markup"":[{""Start"":0,""Length"":18,""URL"":""https://pubchem.ncbi.nlm.nih.gov/compound/Isopropenylbenzene"",""Type"":""PubChemInternalLink"",""Extra"":""CID-7407"",Color/Form is Colorlessliquid...,Odor is ...Characteristicodor.,Boiling_Point is 329.7°Fat760mmHg(NTP,1992),Melting_Point is -9°F(NTP,1992),Flash_Point is 129°F(NTP,1992),Solubility is lessthan1mg/mLat72°F(NTP,1992),Density is 0.91at68°F(USCG,1999)-Lessdensethanwater;willfloat"",""Markup"":[{""Start"":45,""Length"":5,""URL"":""https://pubchem.ncbi.nlm.nih.gov/compound/water"",""Type"":""PubChemInternalLink"",""Extra"":""CID-962"
"1,1,1-trifluoropropan-2-ol",C[C@@H](C(F)(F)F)O,-4.16,-3.518,"cid is 6556,compound_name is Isopentane,cid_paras is 6556,Molecular_Weight is 72.15,XLogP3 is 2.6,Hydrogen_Bond_Donor_Count is 0,Hydrogen_Bond_Acceptor_Count is 0,Rotatable_Bond_Count is 1,Exact_Mass is 72.093900383,Monoisotopic_Mass is 72.093900383,Topological_Polar_Surface_Area is 0,""Unit"":""Å²"",Heavy_Atom_Count is 5,Formal_Charge is 0,Complexity is 14,Isotope_Atom_Count is 0,Defined_Atom_Stereocenter_Count is 0,Undefined_Atom_Stereocenter_Count is 0,Defined_Bond_Stereocenter_Count is 0,Undefined_Bond_Stereocenter_Count is 0,Covalently_Bonded_Unit_Count is 1,Compound_Is_Canonicalized is Yes,Physical_Description is Waterycolorlessliquidwithagasoline-likeodor.Floatsonwater.Flammable,irritatingvaporisproduced.Boilingpointis82°F.(USCG,1999)"",""Markup"":[{""Start"":61,""Length"":5,""URL"":""https://pubchem.ncbi.nlm.nih.gov/compound/water"",""Type"":""PubChemInternalLink"",""Extra"":""CID-962,Color/Form is Volatileliquidorgas,Odor is Pleasantodor,Boiling_Point is 82°Fat760mmHg(NTP,1992),Melting_Point is -255.8°F(NTP,1992),Flash_Point is -70°F(NTP,1992),Solubility is lessthan1mg/mLat73°F(NTP,1992),Density is 0.62at68°F(USCG,1999)-Lessdensethanwater;willfloat"",""Markup"":[{""Start"":45,""Length"":5,""URL"":""https://pubchem.ncbi.nlm.nih.gov/compound/water"",""Type"":""PubChemInternalLink"",""Extra"":""CID-962"
1-bromo-pentane,CCCCCBr,-0.1,0.824,"cid is 13567,compound_name is Butyl nitrate,cid_paras is 13567,Molecular_Weight is 119.12,XLogP3 is 2.1,Hydrogen_Bond_Donor_Count is 0,Hydrogen_Bond_Acceptor_Count is 3,Rotatable_Bond_Count is 3,Exact_Mass is 119.058243149,Monoisotopic_Mass is 119.058243149,Topological_Polar_Surface_Area is 55,""Unit"":""Å²"",Heavy_Atom_Count is 8,Formal_Charge is 0,Complexity is 68.2,Isotope_Atom_Count is 0,Defined_Atom_Stereocenter_Count is 0,Undefined_Atom_Stereocenter_Count is 0,Defined_Bond_Stereocenter_Count is 0,Undefined_Bond_Stereocenter_Count is 0,Covalently_Bonded_Unit_Count is 1,Compound_Is_Canonicalized is Yes,Physical_Description is Water-whiteliquid;[Hawley]"",""Markup"":[{""Start"":0,""Length"":5,""URL"":""https://pubchem.ncbi.nlm.nih.gov/compound/Water"",""Type"":""PubChemInternalLink"",""Extra"":""CID-962"
oct-1-ene,CCCCCCC=C,1.92,2.895,"cid is 7961,compound_name is Bromobenzene,cid_paras is 7961,Molecular_Weight is 157.01,XLogP3 is 3,Hydrogen_Bond_Donor_Count is 0,Hydrogen_Bond_Acceptor_Count is 0,Rotatable_Bond_Count is 0,Exact_Mass is 155.95746,Monoisotopic_Mass is 155.95746,Topological_Polar_Surface_Area is 0,""Unit"":""Å²"",Heavy_Atom_Count is 7,Formal_Charge is 0,Complexity is 46.1,Isotope_Atom_Count is 0,Defined_Atom_Stereocenter_Count is 0,Undefined_Atom_Stereocenter_Count is 0,Defined_Bond_Stereocenter_Count is 0,Undefined_Bond_Stereocenter_Count is 0,Covalently_Bonded_Unit_Count is 1,Compound_Is_Canonicalized is Yes,Physical_Description is Mobileclearcolorlessliquidwithapungentodor.Flashpoint124°F.Denserthanwaterandinsolubleinwater.Hencesinksinwater.Vaporsareheavierthanair.Askinirritant."",""Markup"":[{""Start"":83,""Length"":5,""URL"":""https://pubchem.ncbi.nlm.nih.gov/compound/water"",""Type"":""PubChemInternalLink"",""Extra"":""CID-962"",Color/Form is MOBILELIQUID,Odor is AROMATICODOR,Boiling_Point is 313°Fat760mmHg(NTP,1992),Melting_Point is -24°F(NTP,1992),Flash_Point is 123.8°F(NTP,1992),Solubility is lessthan1mg/mLat68.9°F(NTP,1992),Density is 1.49at77°F(USCG,1999)-Denserthanwater;willsink"",""Markup"":[{""Start"":41,""Length"":5,""URL"":""https://pubchem.ncbi.nlm.nih.gov/compound/water"",""Type"":""PubChemInternalLink"",""Extra"":""CID-962"
6-isopropyl-3-methyl-1-cyclohex-2-enone,CC1=CC(=O)[C@@H](CC1)C(C)C,-4.51,-3.825,"cid is 6278,compound_name is 1,1,1-Trichloroethane,cid_paras is 6278,Molecular_Weight is 133.40,XLogP3 is 2.4,Hydrogen_Bond_Donor_Count is 0,Hydrogen_Bond_Acceptor_Count is 0,Rotatable_Bond_Count is 0,Exact_Mass is 131.930033,Monoisotopic_Mass is 131.930033,Topological_Polar_Surface_Area is 0,""Unit"":""Å²"",Heavy_Atom_Count is 5,Formal_Charge is 0,Complexity is 26.4,Isotope_Atom_Count is 0,Defined_Atom_Stereocenter_Count is 0,Undefined_Atom_Stereocenter_Count is 0,Defined_Bond_Stereocenter_Count is 0,Undefined_Bond_Stereocenter_Count is 0,Covalently_Bonded_Unit_Count is 1,Compound_Is_Canonicalized is Yes,Physical_Description is 1,1,1-trichloroethaneappearsasacolorlessliquidwithasweet,pleasantodor.Mayirritateskin,eyesandmucousmembranes.Inhighconcentrationsthevaporsmayhaveanarcoticeffect.Nonflammable,butmaydecomposeandemittoxicchloridefumesifexposedtohightemperatures.Usedasasolvent."",""Markup"":[{""Start"":0,""Length"":21,""URL"":""https://pubchem.ncbi.nlm.nih.gov/compound/1%2C1%2C1-trichloroethane"",""Type"":""PubChemInternalLink"",""Extra"":""CID-6278"",Color/Form is Colorlessliquid,Odor is ...Mildchloroform-likeodor"",""Markup"":[{""Start"":9,""Length"":10,""URL"":""https://pubchem.ncbi.nlm.nih.gov/compound/chloroform"",""Type"":""PubChemInternalLink"",""Extra"":""CID-6212,Boiling_Point is 165.4°Fat760mmHg(NTP,1992),Melting_Point is -26.5°F(NTP,1992),Flash_Point is greaterthan200°F(NTP,1992),Solubility is lessthan1mg/mLat68°F(NTP,1992),Density is 1.31at68°F(USCG,1999)-Denserthanwater;willsink"",""Markup"":[{""Start"":41,""Length"":5,""URL"":""https://pubchem.ncbi.nlm.nih.gov/compound/water"",""Type"":""PubChemInternalLink"",""Extra"":""CID-962"
propan-2-ol,CC(C)O,-4.74,-3.427,"cid is 2724159,compound_name is Perillaldehyde, (-)-,cid_paras is 2724159,Molecular_Weight is 150.22,XLogP3 is 2.6,Hydrogen_Bond_Donor_Count is 0,Hydrogen_Bond_Acceptor_Count is 1,Rotatable_Bond_Count is 2,Exact_Mass is 150.104465066,Monoisotopic_Mass is 150.104465066,Topological_Polar_Surface_Area is 17.1,""Unit"":""Å²"",Heavy_Atom_Count is 11,Formal_Charge is 0,Complexity is 201,Isotope_Atom_Count is 0,Defined_Atom_Stereocenter_Count is 1,Undefined_Atom_Stereocenter_Count is 0,Defined_Bond_Stereocenter_Count is 0,Undefined_Bond_Stereocenter_Count is 0,Covalently_Bonded_Unit_Count is 1,Compound_Is_Canonicalized is Yes"
hexan-1-amine,CCCCCCN,-3.95,-2.772,"cid is 6944,compound_name is 2-Nitrotoluene,cid_paras is 6944,Molecular_Weight is 137.14,XLogP3 is 2.3,Hydrogen_Bond_Donor_Count is 0,Hydrogen_Bond_Acceptor_Count is 2,Rotatable_Bond_Count is 0,Exact_Mass is 137.047678466,Monoisotopic_Mass is 137.047678466,Topological_Polar_Surface_Area is 45.8,""Unit"":""Å²"",Heavy_Atom_Count is 10,Formal_Charge is 0,Complexity is 130,Isotope_Atom_Count is 0,Defined_Atom_Stereocenter_Count is 0,Undefined_Atom_Stereocenter_Count is 0,Defined_Bond_Stereocenter_Count is 0,Undefined_Bond_Stereocenter_Count is 0,Covalently_Bonded_Unit_Count is 1,Compound_Is_Canonicalized is Yes,Physical_Description is O-nitrotolueneisalightyellowoilyliquidwithacharacteristicodorofaromaticnitrocompounds.Sinksinwater.Derivedfromtoluenebynitrationandseparationbyfractionaldistillation.Flashpoint223°F."",""Markup"":[{""Start"":0,""Length"":14,""URL"":""https://pubchem.ncbi.nlm.nih.gov/compound/O-nitrotoluene"",""Type"":""PubChemInternalLink"",""Extra"":""CID-6944"",Color/Form is Yellowishliquidatordinarytemperature,Odor is Weak,aromaticodor,Boiling_Point is 431.1°Fat760mmHg(NTP,1992),Melting_Point is 14.9°F(NTP,1992),Flash_Point is 223°F(NTP,1992),Solubility is lessthan1mg/mLat70°F(NTP,1992),Density is 1.1622at66.2°F(USCG,1999)-Denserthanwater;willsink"",""Markup"":[{""Start"":45,""Length"":5,""URL"":""https://pubchem.ncbi.nlm.nih.gov/compound/water"",""Type"":""PubChemInternalLink"",""Extra"":""CID-962"
3-nitrooxypropyl nitrate,C(CO[N+](=O)[O-])CO[N+](=O)[O-],-4.8,-5.322,"cid is 20274,compound_name is 1-Iodoheptane,cid_paras is 20274,Molecular_Weight is 226.10,XLogP3 is 4.7,Hydrogen_Bond_Donor_Count is 0,Hydrogen_Bond_Acceptor_Count is 0,Rotatable_Bond_Count is 5,Exact_Mass is 226.02185,Monoisotopic_Mass is 226.02185,Topological_Polar_Surface_Area is 0,""Unit"":""Å²"",Heavy_Atom_Count is 8,Formal_Charge is 0,Complexity is 35.4,Isotope_Atom_Count is 0,Defined_Atom_Stereocenter_Count is 0,Undefined_Atom_Stereocenter_Count is 0,Defined_Bond_Stereocenter_Count is 0,Undefined_Bond_Stereocenter_Count is 0,Covalently_Bonded_Unit_Count is 1,Compound_Is_Canonicalized is Yes,Physical_Description is Colorlessliquid;[AlfaAesarMSDS]"
"2,4-dimethylphenol",Cc1ccc(c(c1)C)O,-6.01,-4.98,"cid is 31423,compound_name is Pyrene,cid_paras is 31423,Molecular_Weight is 202.25,XLogP3 is 4.9,Hydrogen_Bond_Donor_Count is 0,Hydrogen_Bond_Acceptor_Count is 0,Rotatable_Bond_Count is 0,Exact_Mass is 202.078250319,Monoisotopic_Mass is 202.078250319,Topological_Polar_Surface_Area is 0,""Unit"":""Å²"",Heavy_Atom_Count is 16,Formal_Charge is 0,Complexity is 217,Isotope_Atom_Count is 0,Defined_Atom_Stereocenter_Count is 0,Undefined_Atom_Stereocenter_Count is 0,Defined_Bond_Stereocenter_Count is 0,Undefined_Bond_Stereocenter_Count is 0,Covalently_Bonded_Unit_Count is 1,Compound_Is_Canonicalized is Yes,Physical_Description is Pyreneisacolorlesssolid,solidandsolutionshaveaslightbluefluorescence.Usedinbiochemicalresearch.(EPA,1998)"",""Markup"":[{""Start"":0,""Length"":6,""URL"":""https://pubchem.ncbi.nlm.nih.gov/compound/Pyrene"",""Type"":""PubChemInternalLink"",""Extra"":""CID-31423,Color/Form is Monoclinicprismatictabletsfromalcoholorbysublimation;purepyreneiscolorless"",""Markup"":[{""Start"":66,""Length"":6,""URL"":""https://pubchem.ncbi.nlm.nih.gov/compound/pyrene"",""Type"":""PubChemInternalLink"",""Extra"":""CID-31423,Boiling_Point is 759°Fat760mmHg(EPA,1998),Melting_Point is 313°F(EPA,1998),Flash_Point is >200.0°C(>392.0°F),Solubility is lessthan1mg/mLat72°F(NTP,1992),Density is 1.27at73.4°F(EPA,1998)-Denserthanwater;willsink"",""Markup"":[{""Start"":42,""Length"":5,""URL"":""https://pubchem.ncbi.nlm.nih.gov/compound/water"",""Type"":""PubChemInternalLink"",""Extra"":""CID-962"
pentan-1-ol,CCCCCO,-4.57,-3.054,"cid is 10977,compound_name is 1-Chloropentane,cid_paras is 10977,Molecular_Weight is 106.59,XLogP3 is 2.6,Hydrogen_Bond_Donor_Count is 0,Hydrogen_Bond_Acceptor_Count is 0,Rotatable_Bond_Count is 3,Exact_Mass is 106.0549280,Monoisotopic_Mass is 106.0549280,Topological_Polar_Surface_Area is 0,""Unit"":""Å²"",Heavy_Atom_Count is 6,Formal_Charge is 0,Complexity is 19.9,Isotope_Atom_Count is 0,Defined_Atom_Stereocenter_Count is 0,Undefined_Atom_Stereocenter_Count is 0,Defined_Bond_Stereocenter_Count is 0,Undefined_Bond_Stereocenter_Count is 0,Covalently_Bonded_Unit_Count is 1,Compound_Is_Canonicalized is Yes,Physical_Description is Amylchlorideappearsasaclearcolorlesstolight-brownliquidwithanaromaticodor.Flashpointmayvaryfrom35to54°F.Lessdensethanwaterandinsolubleinwater.Hencefloatsonwater.Vaporsareheavierthanair.Vaporsmaybenarcoticinhighconcentrations."",""Markup"":[{""Start"":0,""Length"":13,""URL"":""https://pubchem.ncbi.nlm.nih.gov/compound/Amyl%20chloride"",""Type"":""PubChemInternalLink"",""Extra"":""CID-10977"",Color/Form is Liquid,Odor is Sweetodor,Boiling_Point is 226°Fat760mmHg(USCG,1999),Melting_Point is -146°F(USCG,1999),Flash_Point is 34°F(USCG,1999),Solubility is Inwater,197mg/Lat25°C"",""Markup"":[{""Start"":3,""Length"":5,""URL"":""https://pubchem.ncbi.nlm.nih.gov/compound/water"",""Type"":""PubChemInternalLink"",""Extra"":""CID-962,Density is 0.8834at68°F(USCG,1999)-Lessdensethanwater;willfloat"",""Markup"":[{""Start"":47,""Length"":5,""URL"":""https://pubchem.ncbi.nlm.nih.gov/compound/water"",""Type"":""PubChemInternalLink"",""Extra"":""CID-962"
pentan-2-ol,CCC[C@@H](C)O,-4.39,-2.945,"cid is 8038,compound_name is Isobutyl acetate,cid_paras is 8038,Molecular_Weight is 116.16,XLogP3 is 1.8,Hydrogen_Bond_Donor_Count is 0,Hydrogen_Bond_Acceptor_Count is 2,Rotatable_Bond_Count is 3,Exact_Mass is 116.083729621,Monoisotopic_Mass is 116.083729621,Topological_Polar_Surface_Area is 26.3,""Unit"":""Å²"",Heavy_Atom_Count is 8,Formal_Charge is 0,Complexity is 76.6,Isotope_Atom_Count is 0,Defined_Atom_Stereocenter_Count is 0,Undefined_Atom_Stereocenter_Count is 0,Defined_Bond_Stereocenter_Count is 0,Undefined_Bond_Stereocenter_Count is 0,Covalently_Bonded_Unit_Count is 1,Compound_Is_Canonicalized is Yes,Physical_Description is Isobutylacetateappearsasaclearcolorlessliquidwithafruityodor.Flashpoint64°F.Lessdensethanwater(6.2lb/gal)andinsolubleinwater.Vaporsareheavierthanair."",""Markup"":[{""Start"":0,""Length"":16,""URL"":""https://pubchem.ncbi.nlm.nih.gov/compound/Isobutyl%20acetate"",""Type"":""PubChemInternalLink"",""Extra"":""CID-8038"",Color/Form is Colorlessliquid,Odor is Fruit-likeodor,Boiling_Point is 243.1°Fat760mmHg(USCG,1999),Melting_Point is -142.8°F(USCG,1999),Flash_Point is 62°F(USCG,1999),Solubility is 0.6%at77°F(NIOSH,2024),Density is 0.871at68°F(USCG,1999)-Lessdensethanwater;willfloat"",""Markup"":[{""Start"":46,""Length"":5,""URL"":""https://pubchem.ncbi.nlm.nih.gov/compound/water"",""Type"":""PubChemInternalLink"",""Extra"":""CID-962"