iupac,smiles,expt,calc,Description
"N-methyl-N-(2,2,2-trifluoroethyl)aniline",CN(CC(F)(F)F)c1ccccc1,-1.92,-3.964,"cid is 7165,compound_name is Ethyl benzoate,cid_paras is 7165,Molecular_Weight is 150.17,XLogP3 is 2.6,Hydrogen_Bond_Donor_Count is 0,Hydrogen_Bond_Acceptor_Count is 2,Rotatable_Bond_Count is 3,Exact_Mass is 150.068079557,Monoisotopic_Mass is 150.068079557,Topological_Polar_Surface_Area is 26.3,""Unit"":""Å²"",Heavy_Atom_Count is 11,Formal_Charge is 0,Complexity is 126,Isotope_Atom_Count is 0,Defined_Atom_Stereocenter_Count is 0,Undefined_Atom_Stereocenter_Count is 0,Defined_Bond_Stereocenter_Count is 0,Undefined_Bond_Stereocenter_Count is 0,Covalently_Bonded_Unit_Count is 1,Compound_Is_Canonicalized is Yes,Physical_Description is Liquid,Boiling_Point is 75.50°C.@760.00mmHg,Melting_Point is -34°C,Solubility is 0.72mg/mLat25°C,Density is 1.043-1.050"
"2-chloro-2-(difluoromethoxy)-1,1,1-trifluoro-ethane",[C@@H](C(F)(F)F)(OC(F)F)Cl,0.1,-1.156,"cid is 7848,compound_name is 1-Propanethiol,cid_paras is 7848,Molecular_Weight is 76.16,XLogP3 is 1.8,Hydrogen_Bond_Donor_Count is 1,Hydrogen_Bond_Acceptor_Count is 1,Rotatable_Bond_Count is 1,Exact_Mass is 76.03467143,Monoisotopic_Mass is 76.03467143,Topological_Polar_Surface_Area is 1,""Unit"":""Å²"",Heavy_Atom_Count is 4,Formal_Charge is 0,Complexity is 7.2,Isotope_Atom_Count is 0,Defined_Atom_Stereocenter_Count is 0,Undefined_Atom_Stereocenter_Count is 0,Defined_Bond_Stereocenter_Count is 0,Undefined_Bond_Stereocenter_Count is 0,Covalently_Bonded_Unit_Count is 1,Compound_Is_Canonicalized is Yes,Physical_Description is Propylmercaptanappearsasacolorlessliquidwithastrong,offensiveodor.Moderatelytoxic.Flashpointbelow0°F.Lessdensethanwaterandslightlysolubleinwater.Hencefloatsonwater.Usedasachemicalintermediateandaherbicide."",""Markup"":[{""Start"":0,""Length"":16,""URL"":""https://pubchem.ncbi.nlm.nih.gov/compound/Propyl%20mercaptan"",""Type"":""PubChemInternalLink"",""Extra"":""CID-7848"",Color/Form is COLORLESS,MOBILELIQUID,Odor is Offensive,Boiling_Point is 153°Fat760mmHg(USCG,1999),Melting_Point is -171°F(USCG,1999),Flash_Point is 5°F(USCG,1999),Solubility is Slight(NIOSH,2024),Density is 0.841at68°F(USCG,1999)-Lessdensethanwater;willfloat"",""Markup"":[{""Start"":46,""Length"":5,""URL"":""https://pubchem.ncbi.nlm.nih.gov/compound/water"",""Type"":""PubChemInternalLink"",""Extra"":""CID-962"
"hexa-1,5-diene",C=CCCC=C,1.01,2.487,"cid is 8051,compound_name is 2-Heptanone,cid_paras is 8051,Molecular_Weight is 114.19,XLogP3 is 2,Hydrogen_Bond_Donor_Count is 0,Hydrogen_Bond_Acceptor_Count is 1,Rotatable_Bond_Count is 4,Exact_Mass is 114.104465066,Monoisotopic_Mass is 114.104465066,Topological_Polar_Surface_Area is 17.1,""Unit"":""Å²"",Heavy_Atom_Count is 8,Formal_Charge is 0,Complexity is 66.8,Isotope_Atom_Count is 0,Defined_Atom_Stereocenter_Count is 0,Undefined_Atom_Stereocenter_Count is 0,Defined_Bond_Stereocenter_Count is 0,Undefined_Bond_Stereocenter_Count is 0,Covalently_Bonded_Unit_Count is 1,Compound_Is_Canonicalized is Yes,Physical_Description is N-amylmethylketoneappearsasaclearcolorlessliquid.Flashpoint126°F.Lessdensethanwaterandonlyslightlysolubleinwater.Hencefloatsonwater.Vaporsheavierthanair.Density6.8lb/gal.Usedasasyntheticflavoringandinperfumes."",""Markup"":[{""Start"":0,""Length"":20,""URL"":""https://pubchem.ncbi.nlm.nih.gov/compound/N-amyl%20methyl%20ketone"",""Type"":""PubChemInternalLink"",""Extra"":""CID-8051"",Color/Form is Colorlesstowhiteliquid,Odor is Penetratingfruityodor,Boiling_Point is 300°Fat760mmHg(USCG,1999),Melting_Point is -31°F(USCG,1999),Flash_Point is 102°F(USCG,1999),Solubility is 0.4%(NIOSH,2024),Density is 0.82(USCG,1999)-Lessdensethanwater;willfloat"",""Markup"":[{""Start"":36,""Length"":5,""URL"":""https://pubchem.ncbi.nlm.nih.gov/compound/water"",""Type"":""PubChemInternalLink"",""Extra"":""CID-962"
m-xylene,Cc1cccc(c1)C,-0.83,-0.697,"cid is 2566,compound_name is Carbofuran,cid_paras is 2566,Molecular_Weight is 221.25,XLogP3 is 2.3,Hydrogen_Bond_Donor_Count is 1,Hydrogen_Bond_Acceptor_Count is 3,Rotatable_Bond_Count is 2,Exact_Mass is 221.10519334,Monoisotopic_Mass is 221.10519334,Topological_Polar_Surface_Area is 47.6,""Unit"":""Å²"",Heavy_Atom_Count is 16,Formal_Charge is 0,Complexity is 277,Isotope_Atom_Count is 0,Defined_Atom_Stereocenter_Count is 0,Undefined_Atom_Stereocenter_Count is 0,Defined_Bond_Stereocenter_Count is 0,Undefined_Bond_Stereocenter_Count is 0,Covalently_Bonded_Unit_Count is 1,Compound_Is_Canonicalized is Yes,Physical_Description is Carbofuranisanodorlesswhitecrystallinesolid.Contactwithskinmayburnskinandeyes.Whenexposedtoheatorflamesitmayemittoxicoxidesofnitrogen.Itistoxicbyinhalation,skincontact,and/oringestion.Itisusedasapesticide."",""Markup"":[{""Start"":0,""Length"":10,""URL"":""https://pubchem.ncbi.nlm.nih.gov/compound/Carbofuran"",""Type"":""PubChemInternalLink"",""Extra"":""CID-2566,Color/Form is White,crystallinesolid,Odor is Odorless,Melting_Point is 302to307°F(EPA,1998),Solubility is 0.07%at77°F(NIOSH,2024),Density is 1.18at68°F(EPA,1998)-Denserthanwater;willsink"",""Markup"":[{""Start"":40,""Length"":5,""URL"":""https://pubchem.ncbi.nlm.nih.gov/compound/water"",""Type"":""PubChemInternalLink"",""Extra"":""CID-962"
methyl acetate,CC(=O)OC,-3.13,-3.83,"cid is 7498,compound_name is Benzyl bromide,cid_paras is 7498,Molecular_Weight is 171.03,XLogP3 is 2.9,Hydrogen_Bond_Donor_Count is 0,Hydrogen_Bond_Acceptor_Count is 0,Rotatable_Bond_Count is 1,Exact_Mass is 169.97311,Monoisotopic_Mass is 169.97311,Topological_Polar_Surface_Area is 0,""Unit"":""Å²"",Heavy_Atom_Count is 8,Formal_Charge is 0,Complexity is 55.4,Isotope_Atom_Count is 0,Defined_Atom_Stereocenter_Count is 0,Undefined_Atom_Stereocenter_Count is 0,Defined_Bond_Stereocenter_Count is 0,Undefined_Bond_Stereocenter_Count is 0,Covalently_Bonded_Unit_Count is 1,Compound_Is_Canonicalized is Yes,Physical_Description is Benzylbromideappearsasacolorlessliquidwithanagreeableodor.Toxicbyinhalationandbyskinabsorption.Itisslightlysolubleinwateranddenserthanwater(density1.44g/cm3(Aldrich)).Alachrymator.Corrosivetometalsandtissue."",""Markup"":[{""Start"":0,""Length"":14,""URL"":""https://pubchem.ncbi.nlm.nih.gov/compound/Benzyl%20bromide"",""Type"":""PubChemInternalLink"",""Extra"":""CID-7498"",Color/Form is Clear,refractiveliquid,Odor is Verysharp;pungent;liketeargas,Boiling_Point is 388to390°Fat760mmHg(NTP,1992),Melting_Point is 27to30°F(NTP,1992),Flash_Point is 188°F(NTP,1992),Solubility is Reaction(NTP,1992),Density is 1.441at71.6°F(USCG,1999)-Denserthanwater;willsink"",""Markup"":[{""Start"":44,""Length"":5,""URL"":""https://pubchem.ncbi.nlm.nih.gov/compound/water"",""Type"":""PubChemInternalLink"",""Extra"":""CID-962"
trimethoxymethylbenzene,COC(c1ccccc1)(OC)OC,-4.04,-5.559,"cid is 31265,compound_name is Ethyl hexanoate,cid_paras is 31265,Molecular_Weight is 144.21,XLogP3 is 2.4,Hydrogen_Bond_Donor_Count is 0,Hydrogen_Bond_Acceptor_Count is 2,Rotatable_Bond_Count is 6,Exact_Mass is 144.115029749,Monoisotopic_Mass is 144.115029749,Topological_Polar_Surface_Area is 26.3,""Unit"":""Å²"",Heavy_Atom_Count is 10,Formal_Charge is 0,Complexity is 89.3,Isotope_Atom_Count is 0,Defined_Atom_Stereocenter_Count is 0,Undefined_Atom_Stereocenter_Count is 0,Defined_Bond_Stereocenter_Count is 0,Undefined_Bond_Stereocenter_Count is 0,Covalently_Bonded_Unit_Count is 1,Compound_Is_Canonicalized is Yes,Physical_Description is Liquid,Boiling_Point is 166.00to168.00°C.@760.00mmHg,Melting_Point is -67.5°C,Solubility is 0.629mg/mLat25°C,Density is 0.867-0.871"
ethyl benzoate,CCOC(=O)c1ccccc1,-3.64,-4.597,"cid is 11182,compound_name is Methyl propyl ether,cid_paras is 11182,Molecular_Weight is 74.12,XLogP3 is 1.2,Hydrogen_Bond_Donor_Count is 0,Hydrogen_Bond_Acceptor_Count is 1,Rotatable_Bond_Count is 2,Exact_Mass is 74.073164938,Monoisotopic_Mass is 74.073164938,Topological_Polar_Surface_Area is 9.2,""Unit"":""Å²"",Heavy_Atom_Count is 5,Formal_Charge is 0,Complexity is 13.1,Isotope_Atom_Count is 0,Defined_Atom_Stereocenter_Count is 0,Undefined_Atom_Stereocenter_Count is 0,Defined_Bond_Stereocenter_Count is 0,Undefined_Bond_Stereocenter_Count is 0,Covalently_Bonded_Unit_Count is 1,Compound_Is_Canonicalized is Yes,Physical_Description is Methylpropyletherappearsasacolorlessvolatileliquidwithanether-likeodor.Lessdensethanwaterandinsolubleinwater.Vaporsheavierthanair.Maybenarcoticbyinhalationinhighconcentrations.Usedasasolventandtomakeotherchemicals."",""Markup"":[{""Start"":0,""Length"":19,""URL"":""https://pubchem.ncbi.nlm.nih.gov/compound/Methyl%20propyl%20ether"",""Type"":""PubChemInternalLink"",""Extra"":""CID-11182"""
propanethiol,CCCS,-1.1,-0.182,"cid is 7972,compound_name is 4-Methylmorpholine,cid_paras is 7972,Molecular_Weight is 101.15,XLogP3 is -0.3,Hydrogen_Bond_Donor_Count is 0,Hydrogen_Bond_Acceptor_Count is 2,Rotatable_Bond_Count is 0,Exact_Mass is 101.084063974,Monoisotopic_Mass is 101.084063974,Topological_Polar_Surface_Area is 12.5,""Unit"":""Å²"",Heavy_Atom_Count is 7,Formal_Charge is 0,Complexity is 50,Isotope_Atom_Count is 0,Defined_Atom_Stereocenter_Count is 0,Undefined_Atom_Stereocenter_Count is 0,Defined_Bond_Stereocenter_Count is 0,Undefined_Bond_Stereocenter_Count is 0,Covalently_Bonded_Unit_Count is 1,Compound_Is_Canonicalized is Yes,Physical_Description is 4-methylmorpholineappearsasawater-whiteliquidwithanammonia-likeodor.Lessdensethanwaterandinsolubleinwater.Maybemoderatelytoxicbyingestion,inhalationandskinabsorption.Veryirritatingtoskin,eyes,andmucousmembranes.Usedasasolventandtomakepharmaceuticals."",""Markup"":[{""Start"":0,""Length"":18,""URL"":""https://pubchem.ncbi.nlm.nih.gov/compound/4-methylmorpholine"",""Type"":""PubChemInternalLink"",""Extra"":""CID-7972"",Flash_Point is 75°F(NFPA,2010)"
heptan-2-one,CCCCCC(=O)C,-3.04,-2.945,"cid is 63079,compound_name is 2,3,3',4',5,6-Hexachlorobiphenyl,cid_paras is 63079,Molecular_Weight is 360.9,XLogP3 is 7.2,Hydrogen_Bond_Donor_Count is 0,Hydrogen_Bond_Acceptor_Count is 0,Rotatable_Bond_Count is 1,Exact_Mass is 359.841466,Monoisotopic_Mass is 357.844416,Topological_Polar_Surface_Area is 0,""Unit"":""Å²"",Heavy_Atom_Count is 18,Formal_Charge is 0,Complexity is 272,Isotope_Atom_Count is 0,Defined_Atom_Stereocenter_Count is 0,Undefined_Atom_Stereocenter_Count is 0,Defined_Bond_Stereocenter_Count is 0,Undefined_Bond_Stereocenter_Count is 0,Covalently_Bonded_Unit_Count is 1,Compound_Is_Canonicalized is Yes"
carbofuran,CC1(Cc2cccc(c2O1)OC(=O)NC)C,-9.61,-11.126,"cid is 7668,compound_name is Propylbenzene,cid_paras is 7668,Molecular_Weight is 120.19,XLogP3 is 3.7,Hydrogen_Bond_Donor_Count is 0,Hydrogen_Bond_Acceptor_Count is 0,Rotatable_Bond_Count is 2,Exact_Mass is 120.093900383,Monoisotopic_Mass is 120.093900383,Topological_Polar_Surface_Area is 0,""Unit"":""Å²"",Heavy_Atom_Count is 9,Formal_Charge is 0,Complexity is 60.4,Isotope_Atom_Count is 0,Defined_Atom_Stereocenter_Count is 0,Undefined_Atom_Stereocenter_Count is 0,Defined_Bond_Stereocenter_Count is 0,Undefined_Bond_Stereocenter_Count is 0,Covalently_Bonded_Unit_Count is 1,Compound_Is_Canonicalized is Yes,Physical_Description is N-propylbenzeneappearsasaclearcolorlessliquid.Insolubleinwaterandlessdensethanwater.Flashpoint86°F.Mildlytoxicbyingestionandinhalation.Usedtomakeotherchemicals."",""Markup"":[{""Start"":67,""Length"":5,""URL"":""https://pubchem.ncbi.nlm.nih.gov/compound/water"",""Type"":""PubChemInternalLink"",""Extra"":""CID-962"",Color/Form is Colorlessliquid,Boiling_Point is 318.2°Fat760mmHg(USCG,1999),Melting_Point is -146.2°F(USCG,1999),Flash_Point is 118°F(USCG,1999),Solubility is Veryslightlysolinwater(0.06g/l);solinalcohol,ether"",""Markup"":[{""Start"":21,""Length"":5,""URL"":""https://pubchem.ncbi.nlm.nih.gov/compound/water"",""Type"":""PubChemInternalLink"",""Extra"":""CID-962,Density is 0.862(USCG,1999)-Lessdensethanwater;willfloat"",""Markup"":[{""Start"":37,""Length"":5,""URL"":""https://pubchem.ncbi.nlm.nih.gov/compound/water"",""Type"":""PubChemInternalLink"",""Extra"":""CID-962"
benzyl bromide,c1ccc(cc1)CBr,-2.38,-1.853,"cid is 2519,compound_name is Caffeine,cid_paras is 2519,Molecular_Weight is 194.19,XLogP3 is -0.1,Hydrogen_Bond_Donor_Count is 0,Hydrogen_Bond_Acceptor_Count is 3,Rotatable_Bond_Count is 0,Exact_Mass is 194.08037557,Monoisotopic_Mass is 194.08037557,Topological_Polar_Surface_Area is 58.4,""Unit"":""Å²"",Heavy_Atom_Count is 14,Formal_Charge is 0,Complexity is 293,Isotope_Atom_Count is 0,Defined_Atom_Stereocenter_Count is 0,Undefined_Atom_Stereocenter_Count is 0,Defined_Bond_Stereocenter_Count is 0,Undefined_Bond_Stereocenter_Count is 0,Covalently_Bonded_Unit_Count is 1,Compound_Is_Canonicalized is Yes,Physical_Description is Caffeineappearsasodorlesswhitepowderorwhiteglisteningneedles,usuallymeltedtogether.Bittertaste.Solutionsinwaterareneutraltolitmus.Odorless.(NTP,1992)"",""Markup"":[{""Start"":0,""Length"":8,""URL"":""https://pubchem.ncbi.nlm.nih.gov/compound/Caffeine"",""Type"":""PubChemInternalLink"",""Extra"":""CID-2519"",Color/Form is White,prismaticcrystals,Odor is Odorless,Boiling_Point is 352°Fat760mmHg(sublimes)(NTP,1992),Melting_Point is 460°F(NTP,1992),Solubility is 10to50mg/mLat73°F(NTP,1992),Density is 1.23at64°F(NTP,1992)-Denserthanwater;willsink"",""Markup"":[{""Start"":40,""Length"":5,""URL"":""https://pubchem.ncbi.nlm.nih.gov/compound/water"",""Type"":""PubChemInternalLink"",""Extra"":""CID-962"
ethyl hexanoate,CCCCCC(=O)OCC,-2.23,-2.929,"cid is 674,compound_name is Dimethylamine,cid_paras is 674,Molecular_Weight is 45.08,XLogP3 is -0.2,Hydrogen_Bond_Donor_Count is 1,Hydrogen_Bond_Acceptor_Count is 1,Rotatable_Bond_Count is 0,Exact_Mass is 45.057849228,Monoisotopic_Mass is 45.057849228,Topological_Polar_Surface_Area is 12,""Unit"":""Å²"",Heavy_Atom_Count is 3,Formal_Charge is 0,Complexity is 2.8,Isotope_Atom_Count is 0,Defined_Atom_Stereocenter_Count is 0,Undefined_Atom_Stereocenter_Count is 0,Defined_Bond_Stereocenter_Count is 0,Undefined_Bond_Stereocenter_Count is 0,Covalently_Bonded_Unit_Count is 1,Compound_Is_Canonicalized is Yes,Physical_Description is Dimethylamine,anhydrousappearsasacolorlessgassmellingoffishatlowconcentrationsandofammoniaathigherconcentrations.Shippedasaliquidunderitsvaporpressure.Contactwiththeunconfinedliquidcancausefrostbitebyevaporativecoolingandchemicaltypeburns.Thegas,whichiscorrosive,dissolvesreadilyinwatertoformflammablecorrosivesolutions.Thegasisheavierthanairandcanasphyxiatebythedisplacementofair.Gasiseasilyignitedandproducestoxicoxidesofnitrogenwhenburned.Long-terminhalationoflowconcentrationsorshort-terminhalationoflowconcentrationshasadversehealtheffects.Underprolongedexposuretofireorintenseheatthecontainersmayruptureviolentlyandrocket.Usedtomakeotherchemicalsandasasolvent."",""Markup"":[{""Start"":0,""Length"":13,""URL"":""https://pubchem.ncbi.nlm.nih.gov/compound/Dimethylamine"",""Type"":""PubChemInternalLink"",""Extra"":""CID-674"",Color/Form is Colorlessgas,Odor is ...Ammoniaorfish-likeodor..."",""Markup"":[{""Start"":4,""Length"":7,""URL"":""https://pubchem.ncbi.nlm.nih.gov/compound/Ammonia"",""Type"":""PubChemInternalLink"",""Extra"":""CID-222,Boiling_Point is 45.3°Fat760mmHg(NTP,1992),Melting_Point is -135°F(NTP,1992),Flash_Point is 20°F(USCG,1999),Solubility is 24%at140°F(NIOSH,2024),Density is 0.671at44.4°F(USCG,1999)-Lessdensethanwater;willfloat"",""Markup"":[{""Start"":48,""Length"":5,""URL"":""https://pubchem.ncbi.nlm.nih.gov/compound/water"",""Type"":""PubChemInternalLink"",""Extra"":""CID-962"
1-methoxypropane,CCCOC,-1.66,-0.598,"cid is 8302,compound_name is Hexafluoropropene,cid_paras is 8302,Molecular_Weight is 150.02,XLogP3 is 1.9,Hydrogen_Bond_Donor_Count is 0,Hydrogen_Bond_Acceptor_Count is 6,Rotatable_Bond_Count is 0,Exact_Mass is 149.99041897,Monoisotopic_Mass is 149.99041897,Topological_Polar_Surface_Area is 0,""Unit"":""Å²"",Heavy_Atom_Count is 9,Formal_Charge is 0,Complexity is 126,Isotope_Atom_Count is 0,Defined_Atom_Stereocenter_Count is 0,Undefined_Atom_Stereocenter_Count is 0,Defined_Bond_Stereocenter_Count is 0,Undefined_Bond_Stereocenter_Count is 0,Covalently_Bonded_Unit_Count is 1,Compound_Is_Canonicalized is Yes,Physical_Description is Hexafluoropropyleneisanodorless,colorlessgas.Itisnoncombustible.Itcanasphyxiatebythedisplacementofair.Exposureofthecontainertoprolongedheatorfirecancauseittoruptureviolentlyandrocket."",""Markup"":[{""Start"":0,""Length"":19,""URL"":""https://pubchem.ncbi.nlm.nih.gov/compound/Hexafluoropropylene"",""Type"":""PubChemInternalLink"",""Extra"":""CID-8302,Color/Form is Colorlessgas,Odor is Odorlessgas,Boiling_Point is -29.6°C,Melting_Point is -156.5°C,Density is 1.583AT-40°C/4°C"
4-methylmorpholine,CN1CCOCC1,-6.32,-5.774,"cid is 4684,compound_name is 4-Chlorophenol,cid_paras is 4684,Molecular_Weight is 128.55,XLogP3 is 2.4,Hydrogen_Bond_Donor_Count is 1,Hydrogen_Bond_Acceptor_Count is 1,Rotatable_Bond_Count is 0,Exact_Mass is 128.0028925,Monoisotopic_Mass is 128.0028925,Topological_Polar_Surface_Area is 20.2,""Unit"":""Å²"",Heavy_Atom_Count is 8,Formal_Charge is 0,Complexity is 66.9,Isotope_Atom_Count is 0,Defined_Atom_Stereocenter_Count is 0,Undefined_Atom_Stereocenter_Count is 0,Defined_Bond_Stereocenter_Count is 0,Undefined_Bond_Stereocenter_Count is 0,Covalently_Bonded_Unit_Count is 1,Compound_Is_Canonicalized is Yes,Physical_Description is P-chlorophenolappearsaswhitecrystalswithastrongphenolodor.Slightlysolubletosolubleinwater,dependingontheisomer,anddenserthanwater.Noncombustible.Usedasanintermediateinorganicsynthesisofdyesanddrugs."",""Markup"":[{""Start"":0,""Length"":14,""URL"":""https://pubchem.ncbi.nlm.nih.gov/compound/P-chlorophenol"",""Type"":""PubChemInternalLink"",""Extra"":""CID-4684"",Color/Form is Needlelike,whitetostraw-coloredcrystals,Odor is Characeteristicphenolicodor,Boiling_Point is 428°Fat760mmHg(NTP,1992),Melting_Point is 109.8to110.7°F(NTP,1992),Flash_Point is 250°F(NTP,1992),Solubility is 10to50mg/mLat59°F(NTP,1992),Density is 1.31at68°F(USCG,1999)-Denserthanwater;willsink"",""Markup"":[{""Start"":41,""Length"":5,""URL"":""https://pubchem.ncbi.nlm.nih.gov/compound/water"",""Type"":""PubChemInternalLink"",""Extra"":""CID-962"
3-hydroxybenzonitrile,c1cc(cc(c1)O)C#N,-9.65,-7.739,"cid is 10326,compound_name is Indan,cid_paras is 10326,Molecular_Weight is 118.18,XLogP3 is 3.2,Hydrogen_Bond_Donor_Count is 0,Hydrogen_Bond_Acceptor_Count is 0,Rotatable_Bond_Count is 0,Exact_Mass is 118.078250319,Monoisotopic_Mass is 118.078250319,Topological_Polar_Surface_Area is 0,""Unit"":""Å²"",Heavy_Atom_Count is 9,Formal_Charge is 0,Complexity is 84.2,Isotope_Atom_Count is 0,Defined_Atom_Stereocenter_Count is 0,Undefined_Atom_Stereocenter_Count is 0,Defined_Bond_Stereocenter_Count is 0,Undefined_Bond_Stereocenter_Count is 0,Covalently_Bonded_Unit_Count is 1,Compound_Is_Canonicalized is Yes,Physical_Description is Liquid;[MerckIndex]Clearlightyellowliquid;[Sigma-AldrichMSDS]"