iupac,smiles,expt,calc,Description
"1,1-diethoxyethane",CCOC(C)OCC,-3.28,-1.795,"cid is 12418,compound_name is 1,1,1,2-Tetrachloroethane,cid_paras is 12418,Molecular_Weight is 167.8,XLogP3 is 2.7,Hydrogen_Bond_Donor_Count is 0,Hydrogen_Bond_Acceptor_Count is 0,Rotatable_Bond_Count is 0,Exact_Mass is 167.888111,Monoisotopic_Mass is 165.891061,Topological_Polar_Surface_Area is 0,""Unit"":""Å²"",Heavy_Atom_Count is 6,Formal_Charge is 0,Complexity is 35.3,Isotope_Atom_Count is 0,Defined_Atom_Stereocenter_Count is 0,Undefined_Atom_Stereocenter_Count is 0,Defined_Bond_Stereocenter_Count is 0,Undefined_Bond_Stereocenter_Count is 0,Covalently_Bonded_Unit_Count is 1,Compound_Is_Canonicalized is Yes,Physical_Description is 1,1,1,2-tetrachloroethaneisaclearcolorlessliquid.(NTP,1992)"",""Markup"":[{""Start"":0,""Length"":25,""URL"":""https://pubchem.ncbi.nlm.nih.gov/compound/1%2C1%2C1%2C2-tetrachloroethane"",""Type"":""PubChemInternalLink"",""Extra"":""CID-12418,Color/Form is Colorless,heavyliquid,Boiling_Point is 266.9°Fat760mmHg(NTP,1992),Melting_Point is -94.4°F(NTP,1992),Solubility is lessthan1mg/mLat68.9°F(NTP,1992),Density is 1.5406at68°F(NTP,1992)-Denserthanwater;willsink"",""Markup"":[{""Start"":42,""Length"":5,""URL"":""https://pubchem.ncbi.nlm.nih.gov/compound/water"",""Type"":""PubChemInternalLink"",""Extra"":""CID-962"
"N-butyl-N-ethyl-2,6-dinitro-4-(trifluoromethyl)aniline",CCCC[N@](CC)c1c(cc(cc1[N+](=O)[O-])C(F)(F)F)[N+](=O)[O-],-3.51,-2.303,"cid is 11124,compound_name is Methyl propionate,cid_paras is 11124,Molecular_Weight is 88.11,XLogP3 is 0.8,Hydrogen_Bond_Donor_Count is 0,Hydrogen_Bond_Acceptor_Count is 2,Rotatable_Bond_Count is 2,Exact_Mass is 88.052429494,Monoisotopic_Mass is 88.052429494,Topological_Polar_Surface_Area is 26.3,""Unit"":""Å²"",Heavy_Atom_Count is 6,Formal_Charge is 0,Complexity is 49.5,Isotope_Atom_Count is 0,Defined_Atom_Stereocenter_Count is 0,Undefined_Atom_Stereocenter_Count is 0,Defined_Bond_Stereocenter_Count is 0,Undefined_Bond_Stereocenter_Count is 0,Covalently_Bonded_Unit_Count is 1,Compound_Is_Canonicalized is Yes,Physical_Description is Methylpropionateappearsasaclearcolorlessliquid.Flashpoint28°F.Densityaboutthesameaswater.Vaporsheavierthanair.Mayirritateskin,eyes,andmucousmembranes.Usedforflavoringandasasolvent."",""Markup"":[{""Start"":0,""Length"":17,""URL"":""https://pubchem.ncbi.nlm.nih.gov/compound/Methyl%20propionate"",""Type"":""PubChemInternalLink"",""Extra"":""CID-11124"",Color/Form is Colorlessliq,Odor is SWEET,FRUITY,RUM-LIKEODOR,Boiling_Point is 175.5°Fat760mmHg(NTP,1992),Melting_Point is -125°F(NTP,1992),Flash_Point is 28°F(NTP,1992),Solubility is 50to100mg/mLat72°F(NTP,1992),Density is 0.937at39°F(NTP,1992)-Lessdensethanwater;willfloat"",""Markup"":[{""Start"":45,""Length"":5,""URL"":""https://pubchem.ncbi.nlm.nih.gov/compound/water"",""Type"":""PubChemInternalLink"",""Extra"":""CID-962"
methanethiol,CS,-1.2,-0.273,"cid is 9253,compound_name is Cyclopentane,cid_paras is 9253,Molecular_Weight is 70.13,XLogP3 is 3,Hydrogen_Bond_Donor_Count is 0,Hydrogen_Bond_Acceptor_Count is 0,Rotatable_Bond_Count is 0,Exact_Mass is 70.078250319,Monoisotopic_Mass is 70.078250319,Topological_Polar_Surface_Area is 0,""Unit"":""Å²"",Heavy_Atom_Count is 5,Formal_Charge is 0,Complexity is 11.6,Isotope_Atom_Count is 0,Defined_Atom_Stereocenter_Count is 0,Undefined_Atom_Stereocenter_Count is 0,Defined_Bond_Stereocenter_Count is 0,Undefined_Bond_Stereocenter_Count is 0,Covalently_Bonded_Unit_Count is 1,Compound_Is_Canonicalized is Yes,Physical_Description is Cyclopentaneappearsasaclearcolorlessliquidwithapetroleum-likeodor.Flashpointof-35°F.Lessdensethanwaterandinsolubleinwater.Vaporsareheavierthanair."",""Markup"":[{""Start"":0,""Length"":12,""URL"":""https://pubchem.ncbi.nlm.nih.gov/compound/Cyclopentane"",""Type"":""PubChemInternalLink"",""Extra"":""CID-9253"",Color/Form is Colorlessliquid,Odor is Mild,sweetodor,Boiling_Point is 120.7°Fat760mmHg(USCG,1999),Melting_Point is -137°F(USCG,1999),Flash_Point is lessthan20°F(USCG,1999),Solubility is Insoluble(NIOSH,2024),Density is 0.74at68°F(USCG,1999)-Lessdensethanwater;willfloat"",""Markup"":[{""Start"":45,""Length"":5,""URL"":""https://pubchem.ncbi.nlm.nih.gov/compound/water"",""Type"":""PubChemInternalLink"",""Extra"":""CID-962"
endosulfan alpha,C1[C@@H]2[C@H](COS(=O)O1)[C@@]3(C(=C([C@]2(C3(Cl)Cl)Cl)Cl)Cl)Cl,-4.23,-9.785,"cid is 10823,compound_name is 3-Ethylpyridine,cid_paras is 10823,Molecular_Weight is 107.15,XLogP3 is 1.7,Hydrogen_Bond_Donor_Count is 0,Hydrogen_Bond_Acceptor_Count is 1,Rotatable_Bond_Count is 1,Exact_Mass is 107.073499291,Monoisotopic_Mass is 107.073499291,Topological_Polar_Surface_Area is 12.9,""Unit"":""Å²"",Heavy_Atom_Count is 8,Formal_Charge is 0,Complexity is 61.4,Isotope_Atom_Count is 0,Defined_Atom_Stereocenter_Count is 0,Undefined_Atom_Stereocenter_Count is 0,Defined_Bond_Stereocenter_Count is 0,Undefined_Bond_Stereocenter_Count is 0,Covalently_Bonded_Unit_Count is 1,Compound_Is_Canonicalized is Yes,Physical_Description is Liquid,Boiling_Point is 166.00°C.@762.00mmHg,Melting_Point is -76.9°C,Solubility is 370mg/mLat196°C,Density is 0.951-0.957"
1-(4-methoxyphenyl)ethanone,CC(=O)c1ccc(cc1)OC,-4.4,-6.575,"cid is 11565,compound_name is 3,5-Dimethylpyridine,cid_paras is 11565,Molecular_Weight is 107.15,XLogP3 is 1.8,Hydrogen_Bond_Donor_Count is 0,Hydrogen_Bond_Acceptor_Count is 1,Rotatable_Bond_Count is 0,Exact_Mass is 107.073499291,Monoisotopic_Mass is 107.073499291,Topological_Polar_Surface_Area is 12.9,""Unit"":""Å²"",Heavy_Atom_Count is 8,Formal_Charge is 0,Complexity is 62.8,Isotope_Atom_Count is 0,Defined_Atom_Stereocenter_Count is 0,Undefined_Atom_Stereocenter_Count is 0,Defined_Bond_Stereocenter_Count is 0,Undefined_Bond_Stereocenter_Count is 0,Covalently_Bonded_Unit_Count is 1,Compound_Is_Canonicalized is Yes,Physical_Description is Liquid"
prop-2-en-1-ol,C=CCO,-5.03,-3.286,"cid is 8019,compound_name is 2-Methoxyethanol,cid_paras is 8019,Molecular_Weight is 76.09,XLogP3 is -0.8,Hydrogen_Bond_Donor_Count is 1,Hydrogen_Bond_Acceptor_Count is 2,Rotatable_Bond_Count is 2,Exact_Mass is 76.052429494,Monoisotopic_Mass is 76.052429494,Topological_Polar_Surface_Area is 29.5,""Unit"":""Å²"",Heavy_Atom_Count is 5,Formal_Charge is 0,Complexity is 14.4,Isotope_Atom_Count is 0,Defined_Atom_Stereocenter_Count is 0,Undefined_Atom_Stereocenter_Count is 0,Defined_Bond_Stereocenter_Count is 0,Undefined_Bond_Stereocenter_Count is 0,Covalently_Bonded_Unit_Count is 1,Compound_Is_Canonicalized is Yes,Physical_Description is Ethyleneglycolmonomethyletherappearsasaclearcolorlessliquid.Flashpointof110°F.Lessdensethanwater.Vaporsareheavierthanair."",""Markup"":[{""Start"":0,""Length"":32,""URL"":""https://pubchem.ncbi.nlm.nih.gov/compound/Ethylene%20glycol%20monomethyl%20ether"",""Type"":""PubChemInternalLink"",""Extra"":""CID-8019"",Color/Form is Colorlessliquid,Odor is Mildagreeableodor,Boiling_Point is 257°Fat768mmHg(NTP,1992),Melting_Point is -121.2°F(NTP,1992),Flash_Point is 107°F(NTP,1992),Solubility is greaterthanorequalto100mg/mLat70°F(NTP,1992),Density is 0.966at68°F(USCG,1999)-Lessdensethanwater;willfloat"",""Markup"":[{""Start"":46,""Length"":5,""URL"":""https://pubchem.ncbi.nlm.nih.gov/compound/water"",""Type"":""PubChemInternalLink"",""Extra"":""CID-962"
methylsulfanylethane,CCSC,-1.5,0.386,"cid is 7865,compound_name is Methyl formate,cid_paras is 7865,Molecular_Weight is 60.05,XLogP3 is 0,Hydrogen_Bond_Donor_Count is 0,Hydrogen_Bond_Acceptor_Count is 2,Rotatable_Bond_Count is 1,Exact_Mass is 60.021129366,Monoisotopic_Mass is 60.021129366,Topological_Polar_Surface_Area is 26.3,""Unit"":""Å²"",Heavy_Atom_Count is 4,Formal_Charge is 0,Complexity is 18,Isotope_Atom_Count is 0,Defined_Atom_Stereocenter_Count is 0,Undefined_Atom_Stereocenter_Count is 0,Defined_Bond_Stereocenter_Count is 0,Undefined_Bond_Stereocenter_Count is 0,Covalently_Bonded_Unit_Count is 1,Compound_Is_Canonicalized is Yes,Physical_Description is Methylformateappearsasaclearcolorlessliquidwithanagreeableodor.Flashpoint-27°F.LessdensethanwaterVaporsheavierthanair."",""Markup"":[{""Start"":0,""Length"":14,""URL"":""https://pubchem.ncbi.nlm.nih.gov/compound/Methyl%20formate"",""Type"":""PubChemInternalLink"",""Extra"":""CID-7865"",Color/Form is Colorlessliquid[Note:Agasabove89degreesF].,Odor is Agreeable,Boiling_Point is 88.7°Fat760mmHg(NTP,1992),Melting_Point is -147.6°F(NTP,1992),Flash_Point is -26°F(NTP,1992),Solubility is greaterthanorequalto100mg/mLat72°F(NTP,1992),Density is 0.977at68°F(USCG,1999)-Lessdensethanwater;willfloat"",""Markup"":[{""Start"":46,""Length"":5,""URL"":""https://pubchem.ncbi.nlm.nih.gov/compound/water"",""Type"":""PubChemInternalLink"",""Extra"":""CID-962"
pentyl acetate,CCCCCOC(=O)C,-2.51,-2.565,"cid is 7057,compound_name is 2-Naphthylamine,cid_paras is 7057,Molecular_Weight is 143.18,XLogP3 is 2.3,Hydrogen_Bond_Donor_Count is 1,Hydrogen_Bond_Acceptor_Count is 1,Rotatable_Bond_Count is 0,Exact_Mass is 143.073499291,Monoisotopic_Mass is 143.073499291,Topological_Polar_Surface_Area is 26,""Unit"":""Å²"",Heavy_Atom_Count is 11,Formal_Charge is 0,Complexity is 133,Isotope_Atom_Count is 0,Defined_Atom_Stereocenter_Count is 0,Undefined_Atom_Stereocenter_Count is 0,Defined_Bond_Stereocenter_Count is 0,Undefined_Bond_Stereocenter_Count is 0,Covalently_Bonded_Unit_Count is 1,Compound_Is_Canonicalized is Yes,Physical_Description is Beta-naphthylamineappearsasawhitetoreddishcoloredsolidintheformofflakes.Slightlysolubleinhotwateranddenserthanwater.Toxicbyingestion,inhalationandskinabsorption.Usedtomakedyesandagriculturalchemicals."",""Markup"":[{""Start"":0,""Length"":18,""URL"":""https://pubchem.ncbi.nlm.nih.gov/compound/Beta-naphthylamine"",""Type"":""PubChemInternalLink"",""Extra"":""CID-7057"",Color/Form is COLORLESSCRYSTALSWHICHDARKENINAIRTOAREDDISH-PURPLECOLOR,Odor is Faintaromaticodor,Boiling_Point is 583°Fat760mmHg(NTP,1992),Melting_Point is 232to235°F(NTP,1992),Flash_Point is 315°F(NIOSH,2024),Solubility is lessthan1mg/mLat72°F(NTP,1992),Density is 1.061at208°F(NTP,1992)-Denserthanwater;willsink"",""Markup"":[{""Start"":42,""Length"":5,""URL"":""https://pubchem.ncbi.nlm.nih.gov/compound/water"",""Type"":""PubChemInternalLink"",""Extra"":""CID-962"
"1,2,3,5-tetrachlorobenzene",c1c(cc(c(c1Cl)Cl)Cl)Cl,-1.62,0.136,"cid is 13195,compound_name is 4-Methylimidazole,cid_paras is 13195,Molecular_Weight is 82.10,XLogP3 is 0.2,Hydrogen_Bond_Donor_Count is 1,Hydrogen_Bond_Acceptor_Count is 1,Rotatable_Bond_Count is 0,Exact_Mass is 82.053098200,Monoisotopic_Mass is 82.053098200,Topological_Polar_Surface_Area is 28.7,""Unit"":""Å²"",Heavy_Atom_Count is 6,Formal_Charge is 0,Complexity is 44.8,Isotope_Atom_Count is 0,Defined_Atom_Stereocenter_Count is 0,Undefined_Atom_Stereocenter_Count is 0,Defined_Bond_Stereocenter_Count is 0,Undefined_Bond_Stereocenter_Count is 0,Covalently_Bonded_Unit_Count is 1,Compound_Is_Canonicalized is Yes,Physical_Description is Solid;[HSDB]Lightyellowsolid;[NTP]Lightyellowpowder;[Sigma-AldrichMSDS],Color/Form is Crystals,Boiling_Point is 263°C,Melting_Point is 56°C,Flash_Point is 157°C(315°F)(closedcup),Solubility is Verysolubleinethanol,Density is 1.0416g/cucmat14°C"
1-phenylethanone,CC(=O)c1ccccc1,-4.58,-5.078,"cid is 7422,compound_name is 3-Nitrotoluene,cid_paras is 7422,Molecular_Weight is 137.14,XLogP3 is 2.4,Hydrogen_Bond_Donor_Count is 0,Hydrogen_Bond_Acceptor_Count is 2,Rotatable_Bond_Count is 0,Exact_Mass is 137.047678466,Monoisotopic_Mass is 137.047678466,Topological_Polar_Surface_Area is 45.8,""Unit"":""Å²"",Heavy_Atom_Count is 10,Formal_Charge is 0,Complexity is 130,Isotope_Atom_Count is 0,Defined_Atom_Stereocenter_Count is 0,Undefined_Atom_Stereocenter_Count is 0,Defined_Bond_Stereocenter_Count is 0,Undefined_Bond_Stereocenter_Count is 0,Covalently_Bonded_Unit_Count is 1,Compound_Is_Canonicalized is Yes,Physical_Description is M-nitrotolueneappearsasyellowcrystalsthatmeltat59°Ftoayellowliquid.Oftenthereforeencounteredasaliquid.Flashpoint223°F.Boilingpoint450°F.Insolubleinwater.Toxicbyinhalationandingestion."",""Markup"":[{""Start"":0,""Length"":14,""URL"":""https://pubchem.ncbi.nlm.nih.gov/compound/M-nitrotoluene"",""Type"":""PubChemInternalLink"",""Extra"":""CID-7422"",Color/Form is Yellowliquid[Note:Asolidbelow59degreesF],Odor is Weak,aromaticodor,Boiling_Point is 450.7°Fat760mmHg(NTP,1992),Melting_Point is 59.9°F(NTP,1992),Flash_Point is 223°F(NTP,1992),Solubility is lessthan1mg/mLat70°F(NTP,1992),Density is 1.1571at68°F(USCG,1999)-Denserthanwater;willsink"",""Markup"":[{""Start"":43,""Length"":5,""URL"":""https://pubchem.ncbi.nlm.nih.gov/compound/water"",""Type"":""PubChemInternalLink"",""Extra"":""CID-962"
chloroethane,CCCl,-0.63,0.775,"cid is 8059,compound_name is 1,4-Dichlorobutane,cid_paras is 8059,Molecular_Weight is 127.01,XLogP3 is 2.1,Hydrogen_Bond_Donor_Count is 0,Hydrogen_Bond_Acceptor_Count is 0,Rotatable_Bond_Count is 3,Exact_Mass is 126.0003056,Monoisotopic_Mass is 126.0003056,Topological_Polar_Surface_Area is 0,""Unit"":""Å²"",Heavy_Atom_Count is 6,Formal_Charge is 0,Complexity is 17.5,Isotope_Atom_Count is 0,Defined_Atom_Stereocenter_Count is 0,Undefined_Atom_Stereocenter_Count is 0,Defined_Bond_Stereocenter_Count is 0,Undefined_Bond_Stereocenter_Count is 0,Covalently_Bonded_Unit_Count is 1,Compound_Is_Canonicalized is Yes,Physical_Description is 1,4-dichlorobutaneisacolorlessmobileliquidwithamildpleasantodor.(NTP,1992)"",""Markup"":[{""Start"":0,""Length"":18,""URL"":""https://pubchem.ncbi.nlm.nih.gov/compound/1%2C4-dichlorobutane"",""Type"":""PubChemInternalLink"",""Extra"":""CID-8059,Boiling_Point is 309°Fat760mmHg(NTP,1992),Melting_Point is -35.1°F(NTP,1992),Flash_Point is 104°F(NTP,1992),Density is 1.1408(NTP,1992)-Denserthanwater;willsink"",""Markup"":[{""Start"":33,""Length"":5,""URL"":""https://pubchem.ncbi.nlm.nih.gov/compound/water"",""Type"":""PubChemInternalLink"",""Extra"":""CID-962"
propylcyclopentane,CCCC1CCCC1,2.13,2.102,"cid is 81226,compound_name is 2-Propanone, 1-(nitrooxy)-,cid_paras is 81226,Molecular_Weight is 119.08,XLogP3 is 0.2,Hydrogen_Bond_Donor_Count is 0,Hydrogen_Bond_Acceptor_Count is 4,Rotatable_Bond_Count is 2,Exact_Mass is 119.02185764,Monoisotopic_Mass is 119.02185764,Topological_Polar_Surface_Area is 72.1,""Unit"":""Å²"",Heavy_Atom_Count is 8,Formal_Charge is 0,Complexity is 104,Isotope_Atom_Count is 0,Defined_Atom_Stereocenter_Count is 0,Undefined_Atom_Stereocenter_Count is 0,Defined_Bond_Stereocenter_Count is 0,Undefined_Bond_Stereocenter_Count is 0,Covalently_Bonded_Unit_Count is 1,Compound_Is_Canonicalized is Yes"
"1,3,5-trichlorobenzene",c1c(cc(cc1Cl)Cl)Cl,-0.78,0.326,"cid is 7366,compound_name is tert-Butylbenzene,cid_paras is 7366,Molecular_Weight is 134.22,XLogP3 is 4.1,Hydrogen_Bond_Donor_Count is 0,Hydrogen_Bond_Acceptor_Count is 0,Rotatable_Bond_Count is 1,Exact_Mass is 134.109550447,Monoisotopic_Mass is 134.109550447,Topological_Polar_Surface_Area is 0,""Unit"":""Å²"",Heavy_Atom_Count is 10,Formal_Charge is 0,Complexity is 91.1,Isotope_Atom_Count is 0,Defined_Atom_Stereocenter_Count is 0,Undefined_Atom_Stereocenter_Count is 0,Defined_Bond_Stereocenter_Count is 0,Undefined_Bond_Stereocenter_Count is 0,Covalently_Bonded_Unit_Count is 1,Compound_Is_Canonicalized is Yes,Physical_Description is Colorlessliquid;[Hawley],Color/Form is Liquid,Boiling_Point is 169.1°C,Melting_Point is -57.8°C,Flash_Point is 140°F(60°C)OPENCUP,Solubility is Misciblewithalc,ether,benzene"",""Markup"":[{""Start"":26,""Length"":7,""URL"":""https://pubchem.ncbi.nlm.nih.gov/compound/benzene"",""Type"":""PubChemInternalLink"",""Extra"":""CID-241,Density is 0.8669@20°C/4°C"
propyl paraben,CCCOC(=O)c1ccc(cc1)O,-9.37,-8.945,"cid is 7824,compound_name is Methyl hexanoate,cid_paras is 7824,Molecular_Weight is 130.18,XLogP3 is 2.5,Hydrogen_Bond_Donor_Count is 0,Hydrogen_Bond_Acceptor_Count is 2,Rotatable_Bond_Count is 5,Exact_Mass is 130.099379685,Monoisotopic_Mass is 130.099379685,Topological_Polar_Surface_Area is 26.3,""Unit"":""Å²"",Heavy_Atom_Count is 9,Formal_Charge is 0,Complexity is 79,Isotope_Atom_Count is 0,Defined_Atom_Stereocenter_Count is 0,Undefined_Atom_Stereocenter_Count is 0,Defined_Bond_Stereocenter_Count is 0,Undefined_Bond_Stereocenter_Count is 0,Covalently_Bonded_Unit_Count is 1,Compound_Is_Canonicalized is Yes,Physical_Description is Methylcaproateisaclearcolorlessliquid.(NTP,1992)"",""Markup"":[{""Start"":0,""Length"":15,""URL"":""https://pubchem.ncbi.nlm.nih.gov/compound/Methyl%20caproate"",""Type"":""PubChemInternalLink"",""Extra"":""CID-7824,Boiling_Point is 302°Fat760mmHg(NTP,1992),Melting_Point is -96°F(NTP,1992),Flash_Point is 163°F(NTP,1992),Solubility is lessthan1mg/mLat72°F(NTP,1992),Density is 0.8846at68°F(NTP,1992)-Lessdensethanwater;willfloat"",""Markup"":[{""Start"":46,""Length"":5,""URL"":""https://pubchem.ncbi.nlm.nih.gov/compound/water"",""Type"":""PubChemInternalLink"",""Extra"":""CID-962"
3-chlorophenol,c1cc(cc(c1)Cl)O,-6.62,-5.018,"cid is 6999971,compound_name is (S)-1,1,1-Trifluoro-2-propanol,cid_paras is 6999971,Molecular_Weight is 114.07,XLogP3 is 0.7,Hydrogen_Bond_Donor_Count is 1,Hydrogen_Bond_Acceptor_Count is 4,Rotatable_Bond_Count is 0,Exact_Mass is 114.02924926,Monoisotopic_Mass is 114.02924926,Topological_Polar_Surface_Area is 20.2,""Unit"":""Å²"",Heavy_Atom_Count is 7,Formal_Charge is 0,Complexity is 57.7,Isotope_Atom_Count is 0,Defined_Atom_Stereocenter_Count is 1,Undefined_Atom_Stereocenter_Count is 0,Defined_Bond_Stereocenter_Count is 0,Undefined_Bond_Stereocenter_Count is 0,Covalently_Bonded_Unit_Count is 1,Compound_Is_Canonicalized is Yes"
3-methylbutan-1-ol,CC(C)CCO,-4.42,-3.237,"cid is 8057,compound_name is 1-Bromopentane,cid_paras is 8057,Molecular_Weight is 151.04,XLogP3 is 3.4,Hydrogen_Bond_Donor_Count is 0,Hydrogen_Bond_Acceptor_Count is 0,Rotatable_Bond_Count is 3,Exact_Mass is 150.00441,Monoisotopic_Mass is 150.00441,Topological_Polar_Surface_Area is 0,""Unit"":""Å²"",Heavy_Atom_Count is 6,Formal_Charge is 0,Complexity is 19.9,Isotope_Atom_Count is 0,Defined_Atom_Stereocenter_Count is 0,Undefined_Atom_Stereocenter_Count is 0,Defined_Bond_Stereocenter_Count is 0,Undefined_Bond_Stereocenter_Count is 0,Covalently_Bonded_Unit_Count is 1,Compound_Is_Canonicalized is Yes,Physical_Description is Liquid;[MerckIndex]Clear,lightyellowliquid;[AldrichMSDS]"
pentan-1-amine,CCCCCN,-4.09,-2.835,"cid is 8125,compound_name is 1-Octene,cid_paras is 8125,Molecular_Weight is 112.21,XLogP3 is 4.6,Hydrogen_Bond_Donor_Count is 0,Hydrogen_Bond_Acceptor_Count is 0,Rotatable_Bond_Count is 5,Exact_Mass is 112.125200510,Monoisotopic_Mass is 112.125200510,Topological_Polar_Surface_Area is 0,""Unit"":""Å²"",Heavy_Atom_Count is 8,Formal_Charge is 0,Complexity is 46,Isotope_Atom_Count is 0,Defined_Atom_Stereocenter_Count is 0,Undefined_Atom_Stereocenter_Count is 0,Defined_Bond_Stereocenter_Count is 0,Undefined_Bond_Stereocenter_Count is 0,Covalently_Bonded_Unit_Count is 1,Compound_Is_Canonicalized is Yes,Physical_Description is 1-octeneappearsasacolorlessliquid.Flashpoint70°F.Insolubleinwaterandlessdense(atabout6lb/gal)thanwater.Hencefloatsonwater.Vaporsareheavierthanairandmaysettleindepressions.Reportedtobiodegradeveryslowly.Usedinorganicsynthesis,surfactants,andplasticizers."",""Markup"":[{""Start"":0,""Length"":8,""URL"":""https://pubchem.ncbi.nlm.nih.gov/compound/1-octene"",""Type"":""PubChemInternalLink"",""Extra"":""CID-8125"",Color/Form is Colorlessliquid,Boiling_Point is 250.3°Fat760mmHg(USCG,1999),Melting_Point is -151°F(USCG,1999),Flash_Point is 70°F(USCG,1999),Solubility is Misciblewithethanol,ether"",""Markup"":[{""Start"":14,""Length"":7,""URL"":""https://pubchem.ncbi.nlm.nih.gov/compound/ethanol"",""Type"":""PubChemInternalLink"",""Extra"":""CID-702,Density is 0.715at68°F(USCG,1999)-Lessdensethanwater;willfloat"",""Markup"":[{""Start"":46,""Length"":5,""URL"":""https://pubchem.ncbi.nlm.nih.gov/compound/water"",""Type"":""PubChemInternalLink"",""Extra"":""CID-962"