iupac,smiles,expt,calc,Description
methyldisulfanylmethane,CSSC,-1.83,-0.093,"cid is 177,compound_name is Acetaldehyde,cid_paras is 177,Molecular_Weight is 44.05,XLogP3 is -0.3,Hydrogen_Bond_Donor_Count is 0,Hydrogen_Bond_Acceptor_Count is 1,Rotatable_Bond_Count is 0,Exact_Mass is 44.026214747,Monoisotopic_Mass is 44.026214747,Topological_Polar_Surface_Area is 17.1,""Unit"":""Å²"",Heavy_Atom_Count is 3,Formal_Charge is 0,Complexity is 10.3,Isotope_Atom_Count is 0,Defined_Atom_Stereocenter_Count is 0,Undefined_Atom_Stereocenter_Count is 0,Defined_Bond_Stereocenter_Count is 0,Undefined_Bond_Stereocenter_Count is 0,Covalently_Bonded_Unit_Count is 1,Compound_Is_Canonicalized is Yes,Physical_Description is Acetaldehydeappearsasaclearcolorlessliquidwithapungentchokingodor.Flashpoint-36°F.Boilingpoint69°F.Density6.5lb/gal.Vaporsareheaverthanairandirritatethemucousmembranesandespeciallytheeyes.Usedtomakeotherchemicals."",""Markup"":[{""Start"":0,""Length"":12,""URL"":""https://pubchem.ncbi.nlm.nih.gov/compound/Acetaldehyde"",""Type"":""PubChemInternalLink"",""Extra"":""CID-177,Color/Form is Volatileliquidorgas,Odor is Pungent,fruityodor,Boiling_Point is 70°Fat760mmHg(NTP,1992),Melting_Point is -190.3°F(NTP,1992),Flash_Point is -40°F(NTP,1992),Solubility is 0.1to1.0mg/mLat66°F(NTP,1992),Density is 0.78at68°F(USCG,1999)-Lessdensethanwater;willfloat"",""Markup"":[{""Start"":45,""Length"":5,""URL"":""https://pubchem.ncbi.nlm.nih.gov/compound/water"",""Type"":""PubChemInternalLink"",""Extra"":""CID-962"
captan,C1C=CC[C@@H]2[C@@H]1C(=O)N(C2=O)SC(Cl)(Cl)Cl,-9.01,-8.718,"cid is 7423,compound_name is 3-Nitroaniline,cid_paras is 7423,Molecular_Weight is 138.12,XLogP3 is 1.4,Hydrogen_Bond_Donor_Count is 1,Hydrogen_Bond_Acceptor_Count is 3,Rotatable_Bond_Count is 0,Exact_Mass is 138.042927438,Monoisotopic_Mass is 138.042927438,Topological_Polar_Surface_Area is 71.8,""Unit"":""Å²"",Heavy_Atom_Count is 10,Formal_Charge is 0,Complexity is 132,Isotope_Atom_Count is 0,Defined_Atom_Stereocenter_Count is 0,Undefined_Atom_Stereocenter_Count is 0,Defined_Bond_Stereocenter_Count is 0,Undefined_Bond_Stereocenter_Count is 0,Covalently_Bonded_Unit_Count is 1,Compound_Is_Canonicalized is Yes,Physical_Description is M-nitroanilineappearsasyellowneedlesoryellowpowder.(NTP,1992)"",""Markup"":[{""Start"":0,""Length"":14,""URL"":""https://pubchem.ncbi.nlm.nih.gov/compound/M-nitroaniline"",""Type"":""PubChemInternalLink"",""Extra"":""CID-7423,Color/Form is Yellowcrystalsfromwater"",""Markup"":[{""Start"":21,""Length"":5,""URL"":""https://pubchem.ncbi.nlm.nih.gov/compound/water"",""Type"":""PubChemInternalLink"",""Extra"":""CID-962,Odor is Burningsweetodor,Boiling_Point is 581to585°Fat760mmHg(decomposes)(NTP,1992),Melting_Point is 237°F(NTP,1992),Flash_Point is 199°C,Solubility is 16.7[ug/mL](ThemeanoftheresultsatpH7.4),Density is 0.9011at77°F(NTP,1992)-Lessdensethanwater;willfloat"",""Markup"":[{""Start"":46,""Length"":5,""URL"":""https://pubchem.ncbi.nlm.nih.gov/compound/water"",""Type"":""PubChemInternalLink"",""Extra"":""CID-962"
"2,3-diacetoxypropyl acetate",CC(=O)OCC(COC(=O)C)OC(=O)C,-8.84,-12.333,"cid is 7000,compound_name is O-Anisidine,cid_paras is 7000,Molecular_Weight is 123.15,XLogP3 is 1.2,Hydrogen_Bond_Donor_Count is 1,Hydrogen_Bond_Acceptor_Count is 2,Rotatable_Bond_Count is 1,Exact_Mass is 123.068413911,Monoisotopic_Mass is 123.068413911,Topological_Polar_Surface_Area is 35.2,""Unit"":""Å²"",Heavy_Atom_Count is 9,Formal_Charge is 0,Complexity is 85,Isotope_Atom_Count is 0,Defined_Atom_Stereocenter_Count is 0,Undefined_Atom_Stereocenter_Count is 0,Defined_Bond_Stereocenter_Count is 0,Undefined_Bond_Stereocenter_Count is 0,Covalently_Bonded_Unit_Count is 1,Compound_Is_Canonicalized is Yes,Physical_Description is O-anisidineappearsasclear,yellowishtoreddishorbrownliquidwithanamine(fishy)odor.(NTP,1992)"",""Markup"":[{""Start"":0,""Length"":11,""URL"":""https://pubchem.ncbi.nlm.nih.gov/compound/O-anisidine"",""Type"":""PubChemInternalLink"",""Extra"":""CID-7000,Color/Form is Yellowishliquid;becomesbrownishonexposuretoair,Odor is Amine-likeodor,Boiling_Point is 437°Fat760mmHg(NTP,1992),Melting_Point is 41°F(NTP,1992),Flash_Point is 210°F(NTP,1992),Solubility is lessthan0.1mg/mLat66°F(NTP,1992),Density is 1.0923at68°F(NTP,1992)-Denserthanwater;willsink"",""Markup"":[{""Start"":42,""Length"":5,""URL"":""https://pubchem.ncbi.nlm.nih.gov/compound/water"",""Type"":""PubChemInternalLink"",""Extra"":""CID-962"
methoxymethane,COC,-1.91,-0.853,"cid is 996,compound_name is Phenol,cid_paras is 996,Molecular_Weight is 94.11,XLogP3 is 1.5,Hydrogen_Bond_Donor_Count is 1,Hydrogen_Bond_Acceptor_Count is 1,Rotatable_Bond_Count is 0,Exact_Mass is 94.041864811,Monoisotopic_Mass is 94.041864811,Topological_Polar_Surface_Area is 20.2,""Unit"":""Å²"",Heavy_Atom_Count is 7,Formal_Charge is 0,Complexity is 46.1,Isotope_Atom_Count is 0,Defined_Atom_Stereocenter_Count is 0,Undefined_Atom_Stereocenter_Count is 0,Defined_Bond_Stereocenter_Count is 0,Undefined_Bond_Stereocenter_Count is 0,Covalently_Bonded_Unit_Count is 1,Compound_Is_Canonicalized is Yes,Physical_Description is Phenolsolution,[aqueous]isawhitecrystallinemassdissolvedinanaqueoussolution.Solutionmaybecolorlesstoslightlypinkincolorwithadistinctivephenolodor;sharpburningtaste.Aqueoussolutionwillbeacidicandactassuch.Toxicbyingestion,inhalationandskinabsorption;strongirritanttotissues."",""Markup"":[{""Start"":0,""Length"":6,""URL"":""https://pubchem.ncbi.nlm.nih.gov/compound/Phenol"",""Type"":""PubChemInternalLink"",""Extra"":""CID-996"",Color/Form is Colorlessacicularcrystalsorwhite,crystallinemass,Odor is Distinctaromatic,somewhatsickeningsweetandacridodor,discernableat0.5to5ppm,Boiling_Point is 360°Fat760mmHg(NTP,1992),Melting_Point is 109°F(NTP,1992),Flash_Point is 175°F(NTP,1992),Solubility is 50to100mg/mLat66°F(NTP,1992),Density is 1.04at105.8°F(USCG,1999)-Denserthanwater;willsink"",""Markup"":[{""Start"":44,""Length"":5,""URL"":""https://pubchem.ncbi.nlm.nih.gov/compound/water"",""Type"":""PubChemInternalLink"",""Extra"":""CID-962"
hexane,CCCCCC,2.48,2.851,"cid is 7005,compound_name is 1-Naphthol,cid_paras is 7005,Molecular_Weight is 144.17,XLogP3 is 2.8,Hydrogen_Bond_Donor_Count is 1,Hydrogen_Bond_Acceptor_Count is 1,Rotatable_Bond_Count is 0,Exact_Mass is 144.057514874,Monoisotopic_Mass is 144.057514874,Topological_Polar_Surface_Area is 20.2,""Unit"":""Å²"",Heavy_Atom_Count is 11,Formal_Charge is 0,Complexity is 133,Isotope_Atom_Count is 0,Defined_Atom_Stereocenter_Count is 0,Undefined_Atom_Stereocenter_Count is 0,Defined_Bond_Stereocenter_Count is 0,Undefined_Bond_Stereocenter_Count is 0,Covalently_Bonded_Unit_Count is 1,Compound_Is_Canonicalized is Yes,Physical_Description is PelletsorLargeCrystals,Color/Form is Yellowmonoclinicneedlesfromwater"",""Markup"":[{""Start"":31,""Length"":5,""URL"":""https://pubchem.ncbi.nlm.nih.gov/compound/water"",""Type"":""PubChemInternalLink"",""Extra"":""CID-962,Odor is Phenolicodor,Boiling_Point is 288°C,Melting_Point is 96°C,Flash_Point is 153°C(opencup),Solubility is Inwater,866mg/Lat25°C"",""Markup"":[{""Start"":3,""Length"":5,""URL"":""https://pubchem.ncbi.nlm.nih.gov/compound/water"",""Type"":""PubChemInternalLink"",""Extra"":""CID-962,Density is 1.0954at98.7°C/4°C"
"1,2-dibromoethane",C(CBr)Br,-2.33,-1.275,"cid is 31272,compound_name is Butyl acetate,cid_paras is 31272,Molecular_Weight is 116.16,XLogP3 is 1.8,Hydrogen_Bond_Donor_Count is 0,Hydrogen_Bond_Acceptor_Count is 2,Rotatable_Bond_Count is 4,Exact_Mass is 116.083729621,Monoisotopic_Mass is 116.083729621,Topological_Polar_Surface_Area is 26.3,""Unit"":""Å²"",Heavy_Atom_Count is 8,Formal_Charge is 0,Complexity is 68.9,Isotope_Atom_Count is 0,Defined_Atom_Stereocenter_Count is 0,Undefined_Atom_Stereocenter_Count is 0,Defined_Bond_Stereocenter_Count is 0,Undefined_Bond_Stereocenter_Count is 0,Covalently_Bonded_Unit_Count is 1,Compound_Is_Canonicalized is Yes,Physical_Description is Butylacetateappearsasaclearcolorlessliquidwithafruityodor.Flashpoint72-88°F.Density7.4lb/gal(lessthanwater).Hencefloatsonwater.Vaporsheavierthanair."",""Markup"":[{""Start"":0,""Length"":13,""URL"":""https://pubchem.ncbi.nlm.nih.gov/compound/Butyl%20acetate"",""Type"":""PubChemInternalLink"",""Extra"":""CID-31272"",Color/Form is Colorlessliquid,Odor is Strongfruityodor,Boiling_Point is 259.7°Fat760mmHg(NTP,1992),Melting_Point is -108.2°F(NTP,1992),Flash_Point is 72°F(NTP,1992),Solubility is 1to5mg/mLat68°F(NTP,1992),Density is 0.875at68°F(USCG,1999)-Lessdensethanwater;willfloat"",""Markup"":[{""Start"":46,""Length"":5,""URL"":""https://pubchem.ncbi.nlm.nih.gov/compound/water"",""Type"":""PubChemInternalLink"",""Extra"":""CID-962"
"1,1,1,2,2-pentachloroethane",C(C(Cl)(Cl)Cl)(Cl)Cl,-1.23,0.059,"cid is 335,compound_name is o-Cresol,cid_paras is 335,Molecular_Weight is 108.14,XLogP3 is 2,Hydrogen_Bond_Donor_Count is 1,Hydrogen_Bond_Acceptor_Count is 1,Rotatable_Bond_Count is 0,Exact_Mass is 108.057514874,Monoisotopic_Mass is 108.057514874,Topological_Polar_Surface_Area is 20.2,""Unit"":""Å²"",Heavy_Atom_Count is 8,Formal_Charge is 0,Complexity is 70.8,Isotope_Atom_Count is 0,Defined_Atom_Stereocenter_Count is 0,Undefined_Atom_Stereocenter_Count is 0,Defined_Bond_Stereocenter_Count is 0,Undefined_Bond_Stereocenter_Count is 0,Covalently_Bonded_Unit_Count is 1,Compound_Is_Canonicalized is Yes,Physical_Description is O-cresolappearsascolorlessoryellowtobrown-yelloworpinkishcoloredliquidwithaphenol-likeodor.Toxicbyingestionand/orskinabsorption.Mayhaveaflashpointbetween100and199°F.Causesburnstoskin,eyesandmucousmembranes.Insolubleinwater."",""Markup"":[{""Start"":0,""Length"":8,""URL"":""https://pubchem.ncbi.nlm.nih.gov/compound/O-cresol"",""Type"":""PubChemInternalLink"",""Extra"":""CID-335"",Color/Form is Crystalsinliquidbecomingdarkwithageandexposuretolightandair,Odor is Phenolicodor,Boiling_Point is 376°Fat760mmHg(EPA,1998),Melting_Point is 88°F(EPA,1998),Flash_Point is 177.8to181.4°F(EPA,1998),Solubility is lessthan1mg/mLat66°F(NTP,1992),Density is 1.047at68°F(EPA,1998)-Denserthanwater;willsink"",""Markup"":[{""Start"":41,""Length"":5,""URL"":""https://pubchem.ncbi.nlm.nih.gov/compound/water"",""Type"":""PubChemInternalLink"",""Extra"":""CID-962"
5-trifluoromethyluracil,c1c(c(=O)[nH]c(=O)[nH]1)C(F)(F)F,-15.46,-17.349,"cid is 6561,compound_name is Isobutyraldehyde,cid_paras is 6561,Molecular_Weight is 72.11,XLogP3 is 0.8,Hydrogen_Bond_Donor_Count is 0,Hydrogen_Bond_Acceptor_Count is 1,Rotatable_Bond_Count is 1,Exact_Mass is 72.057514874,Monoisotopic_Mass is 72.057514874,Topological_Polar_Surface_Area is 17.1,""Unit"":""Å²"",Heavy_Atom_Count is 5,Formal_Charge is 0,Complexity is 30.6,Isotope_Atom_Count is 0,Defined_Atom_Stereocenter_Count is 0,Undefined_Atom_Stereocenter_Count is 0,Defined_Bond_Stereocenter_Count is 0,Undefined_Bond_Stereocenter_Count is 0,Covalently_Bonded_Unit_Count is 1,Compound_Is_Canonicalized is Yes,Physical_Description is Isobutylaldehydeappearsasaclearcolorlessliquidwithapungentodor.Flashpointof-40°F.Lessdensethanwaterandinsolubleinwater.Hencefloatsonwater.Vaporsareheavierthanair.Usedtomakeotherchemicals."",""Markup"":[{""Start"":114,""Length"":5,""URL"":""https://pubchem.ncbi.nlm.nih.gov/compound/water"",""Type"":""PubChemInternalLink"",""Extra"":""CID-962"",Color/Form is Transparent,colorlessliquid,Odor is EXTREMELYSHARP,Boiling_Point is 147°Fat760mmHg(NTP,1992),Melting_Point is -85°F(NTP,1992),Flash_Point is -40°F(NTP,1992),Solubility is lessthan1mg/mLat66°F(NTP,1992),Density is 0.791at68°F(USCG,1999)-Lessdensethanwater;willfloat"",""Markup"":[{""Start"":46,""Length"":5,""URL"":""https://pubchem.ncbi.nlm.nih.gov/compound/water"",""Type"":""PubChemInternalLink"",""Extra"":""CID-962"
"2,6-dimethylaniline",Cc1cccc(c1N)C,-5.21,-5.57,"cid is 6578,compound_name is Propionamide,cid_paras is 6578,Molecular_Weight is 73.09,XLogP3 is -0.7,Hydrogen_Bond_Donor_Count is 1,Hydrogen_Bond_Acceptor_Count is 1,Rotatable_Bond_Count is 1,Exact_Mass is 73.052763847,Monoisotopic_Mass is 73.052763847,Topological_Polar_Surface_Area is 43.1,""Unit"":""Å²"",Heavy_Atom_Count is 5,Formal_Charge is 0,Complexity is 42.2,Isotope_Atom_Count is 0,Defined_Atom_Stereocenter_Count is 0,Undefined_Atom_Stereocenter_Count is 0,Defined_Bond_Stereocenter_Count is 0,Undefined_Bond_Stereocenter_Count is 0,Covalently_Bonded_Unit_Count is 1,Compound_Is_Canonicalized is Yes,Physical_Description is Solid;[MerckIndex]Off-whitecrystallineflakes;[AlfaAesarMSDS]"
propyl acetate,CCCOC(=O)C,-2.79,-3.486,"cid is 7840,compound_name is 1-Bromopropane,cid_paras is 7840,Molecular_Weight is 122.99,XLogP3 is 2.1,Hydrogen_Bond_Donor_Count is 0,Hydrogen_Bond_Acceptor_Count is 0,Rotatable_Bond_Count is 1,Exact_Mass is 121.97311,Monoisotopic_Mass is 121.97311,Topological_Polar_Surface_Area is 0,""Unit"":""Å²"",Heavy_Atom_Count is 4,Formal_Charge is 0,Complexity is 7.2,Isotope_Atom_Count is 0,Defined_Atom_Stereocenter_Count is 0,Undefined_Atom_Stereocenter_Count is 0,Defined_Bond_Stereocenter_Count is 0,Undefined_Bond_Stereocenter_Count is 0,Covalently_Bonded_Unit_Count is 1,Compound_Is_Canonicalized is Yes,Physical_Description is 1-bromopropaneappearsasacolorlessliquid.Slightlydenserthanwaterandslightlysolubleinwater.Flashpointbelow75°F.Whenheatedtohightemperaturesmayemittoxicfumes.SpecialHazardsofCombustionProducts:ToxicfumesofHydrogenBromide(USCG,1999)"",""Markup"":[{""Start"":0,""Length"":14,""URL"":""https://pubchem.ncbi.nlm.nih.gov/compound/1-bromopropane"",""Type"":""PubChemInternalLink"",""Extra"":""CID-7840"",Color/Form is Colorlessliquid,Odor is Sweetodor,Boiling_Point is 160°Fat760mmHg(USCG,1999),Melting_Point is -166°F(USCG,1999),Flash_Point is 78°F(USCG,1999),Solubility is Inwater,2,450mg/Lat20°C"",""Markup"":[{""Start"":3,""Length"":5,""URL"":""https://pubchem.ncbi.nlm.nih.gov/compound/water"",""Type"":""PubChemInternalLink"",""Extra"":""CID-962,Density is 1.3537at68°F(USCG,1999)-Denserthanwater;willsink"",""Markup"":[{""Start"":43,""Length"":5,""URL"":""https://pubchem.ncbi.nlm.nih.gov/compound/water"",""Type"":""PubChemInternalLink"",""Extra"":""CID-962"
quinoline,c1ccc2c(c1)cccn2,-5.72,-4.989,"cid is 6361,compound_name is 2-Chloropropane,cid_paras is 6361,Molecular_Weight is 78.54,XLogP3 is 1.6,Hydrogen_Bond_Donor_Count is 0,Hydrogen_Bond_Acceptor_Count is 0,Rotatable_Bond_Count is 0,Exact_Mass is 78.0236279,Monoisotopic_Mass is 78.0236279,Topological_Polar_Surface_Area is 0,""Unit"":""Å²"",Heavy_Atom_Count is 4,Formal_Charge is 0,Complexity is 10.8,Isotope_Atom_Count is 0,Defined_Atom_Stereocenter_Count is 0,Undefined_Atom_Stereocenter_Count is 0,Defined_Bond_Stereocenter_Count is 0,Undefined_Bond_Stereocenter_Count is 0,Covalently_Bonded_Unit_Count is 1,Compound_Is_Canonicalized is Yes,Physical_Description is 2-chloropropaneappearsasacolorlessliquidwithachloroform-likeodor.Vaporsheavierthanair.Lessdensethanwater.Mayirritateskinandeyes,andbenarcoticinhighconcentrations.Afireandexplosionrisk.Usedtomakeotherchemicals."",""Markup"":[{""Start"":0,""Length"":15,""URL"":""https://pubchem.ncbi.nlm.nih.gov/compound/2-chloropropane"",""Type"":""PubChemInternalLink"",""Extra"":""CID-6361"",Color/Form is COLORLESSLIQUID,Boiling_Point is 96.33°Fat760mmHg(NTP,1992),Melting_Point is -178.9°F(NTP,1992),Flash_Point is -26°F(NTP,1992),Solubility is Misciblewithalcohol,ether,Density is 0.8617at68°F(NTP,1992)-Lessdensethanwater;willfloat"",""Markup"":[{""Start"":46,""Length"":5,""URL"":""https://pubchem.ncbi.nlm.nih.gov/compound/water"",""Type"":""PubChemInternalLink"",""Extra"":""CID-962"
ethanethiol,CCS,-1.14,-0.395,"cid is 8881,compound_name is 1,3-Dichloropropane,cid_paras is 8881,Molecular_Weight is 112.98,XLogP3 is 2,Hydrogen_Bond_Donor_Count is 0,Hydrogen_Bond_Acceptor_Count is 0,Rotatable_Bond_Count is 2,Exact_Mass is 111.9846556,Monoisotopic_Mass is 111.9846556,Topological_Polar_Surface_Area is 0,""Unit"":""Å²"",Heavy_Atom_Count is 5,Formal_Charge is 0,Complexity is 12.4,Isotope_Atom_Count is 0,Defined_Atom_Stereocenter_Count is 0,Undefined_Atom_Stereocenter_Count is 0,Defined_Bond_Stereocenter_Count is 0,Undefined_Bond_Stereocenter_Count is 0,Covalently_Bonded_Unit_Count is 1,Compound_Is_Canonicalized is Yes,Physical_Description is 1,3-dichloropropaneisacolorlesswateryliquidwithasweetodor.Sinksinwater.Producesirritatingvapor.(USCG,1999)"",""Markup"":[{""Start"":0,""Length"":19,""URL"":""https://pubchem.ncbi.nlm.nih.gov/compound/1%2C3-dichloropropane"",""Type"":""PubChemInternalLink"",""Extra"":""CID-8881"",Color/Form is Colorlessliquid,Odor is Sweet,Boiling_Point is 248.7°Fat760mmHg(USCG,1999),Melting_Point is -147.1°F(USCG,1999),Flash_Point is 70°F(est.)(USCG,1999),Solubility is Solinbenzene,chloroform,alcohol,ether"",""Markup"":[{""Start"":7,""Length"":7,""URL"":""https://pubchem.ncbi.nlm.nih.gov/compound/benzene"",""Type"":""PubChemInternalLink"",""Extra"":""CID-241"",Density is 1.1878at68°F(USCG,1999)-Denserthanwater;willsink"",""Markup"":[{""Start"":43,""Length"":5,""URL"":""https://pubchem.ncbi.nlm.nih.gov/compound/water"",""Type"":""PubChemInternalLink"",""Extra"":""CID-962"
ethyldisulfanylethane,CCSSCC,-1.64,-0.979,"cid is 980,compound_name is 4-Nitrophenol,cid_paras is 980,Molecular_Weight is 139.11,XLogP3 is 1.9,Hydrogen_Bond_Donor_Count is 1,Hydrogen_Bond_Acceptor_Count is 3,Rotatable_Bond_Count is 0,Exact_Mass is 139.026943022,Monoisotopic_Mass is 139.026943022,Topological_Polar_Surface_Area is 66,""Unit"":""Å²"",Heavy_Atom_Count is 10,Formal_Charge is 0,Complexity is 123,Isotope_Atom_Count is 0,Defined_Atom_Stereocenter_Count is 0,Undefined_Atom_Stereocenter_Count is 0,Defined_Bond_Stereocenter_Count is 0,Undefined_Bond_Stereocenter_Count is 0,Covalently_Bonded_Unit_Count is 1,Compound_Is_Canonicalized is Yes,Physical_Description is 4-nitrophenolappearsasawhitetolightyellowcrystallinesolid.Contactmayseverelyirritateskinandeyes.Poisonousbyingestionandmoderatelytoxicbyskincontact."",""Markup"":[{""Start"":0,""Length"":13,""URL"":""https://pubchem.ncbi.nlm.nih.gov/compound/4-nitrophenol"",""Type"":""PubChemInternalLink"",""Extra"":""CID-980,Color/Form is Colorlesstoslightlyyellowcrystals,Odor is Odorless,Boiling_Point is 534°Fat760mmHg(Decomposes)(NTP,1992),Melting_Point is 235to239°F(Sublimes)(NTP,1992),Flash_Point is 377°F(NTP,1992),Solubility is lessthan0.1mg/mLat70°F(NTP,1992),Density is 1.48at68°F(USCG,1999)-Denserthanwater;willsink"",""Markup"":[{""Start"":41,""Length"":5,""URL"":""https://pubchem.ncbi.nlm.nih.gov/compound/water"",""Type"":""PubChemInternalLink"",""Extra"":""CID-962"
thiophene,c1ccsc1,-1.4,-0.359,"cid is 17753912,compound_name is (S)-1,2-Dichloropropane,cid_paras is 17753912,Molecular_Weight is 112.98,XLogP3 is 1.8,Hydrogen_Bond_Donor_Count is 0,Hydrogen_Bond_Acceptor_Count is 0,Rotatable_Bond_Count is 1,Exact_Mass is 111.9846556,Monoisotopic_Mass is 111.9846556,Topological_Polar_Surface_Area is 0,""Unit"":""Å²"",Heavy_Atom_Count is 5,Formal_Charge is 0,Complexity is 20.9,Isotope_Atom_Count is 0,Defined_Atom_Stereocenter_Count is 1,Undefined_Atom_Stereocenter_Count is 0,Defined_Bond_Stereocenter_Count is 0,Undefined_Bond_Stereocenter_Count is 0,Covalently_Bonded_Unit_Count is 1,Compound_Is_Canonicalized is Yes,Boiling_Point is 95.5,""Unit"":""°C"",Melting_Point is -100,""Unit"":""°C"",Solubility is 2800,""Unit"":""mg/L(at25°C)"""