iupac,smiles,expt,calc,Description
dicamba,COc1c(ccc(c1C(=O)O)Cl)Cl,-9.86,-8.658,"cid is 8063,compound_name is Valeraldehyde,cid_paras is 8063,Molecular_Weight is 86.13,XLogP3 is 1.1,Hydrogen_Bond_Donor_Count is 0,Hydrogen_Bond_Acceptor_Count is 1,Rotatable_Bond_Count is 3,Exact_Mass is 86.073164938,Monoisotopic_Mass is 86.073164938,Topological_Polar_Surface_Area is 17.1,""Unit"":""Å²"",Heavy_Atom_Count is 6,Formal_Charge is 0,Complexity is 32.9,Isotope_Atom_Count is 0,Defined_Atom_Stereocenter_Count is 0,Undefined_Atom_Stereocenter_Count is 0,Defined_Bond_Stereocenter_Count is 0,Undefined_Bond_Stereocenter_Count is 0,Covalently_Bonded_Unit_Count is 1,Compound_Is_Canonicalized is Yes,Physical_Description is Valeraldehydeappearsasacolorlessliquid.Slightlysolubleinwaterandlessdensethanwater.Flashpoint54°F.Vaporsheavierthanair.Usedtomakeartificialflavoringsandrubber."",""Markup"":[{""Start"":0,""Length"":13,""URL"":""https://pubchem.ncbi.nlm.nih.gov/compound/Valeraldehyde"",""Type"":""PubChemInternalLink"",""Extra"":""CID-8063"",Color/Form is Liquid,Odor is POWERFUL,ACRID,PUNGENTODOR,Boiling_Point is 216to217°Fat760mmHg(NTP,1992),Melting_Point is -132.7°F(NTP,1992),Flash_Point is 53.6°F(NTP,1992),Solubility is lessthan1mg/mLat68°F(NTP,1992),Density is 0.811at68°F(USCG,1999)-Lessdensethanwater;willfloat"",""Markup"":[{""Start"":46,""Length"":5,""URL"":""https://pubchem.ncbi.nlm.nih.gov/compound/water"",""Type"":""PubChemInternalLink"",""Extra"":""CID-962"
pent-2-ene,CC/C=C\C,1.31,2.374,"cid is 10326,compound_name is Indan,cid_paras is 10326,Molecular_Weight is 118.18,XLogP3 is 3.2,Hydrogen_Bond_Donor_Count is 0,Hydrogen_Bond_Acceptor_Count is 0,Rotatable_Bond_Count is 0,Exact_Mass is 118.078250319,Monoisotopic_Mass is 118.078250319,Topological_Polar_Surface_Area is 0,""Unit"":""Å²"",Heavy_Atom_Count is 9,Formal_Charge is 0,Complexity is 84.2,Isotope_Atom_Count is 0,Defined_Atom_Stereocenter_Count is 0,Undefined_Atom_Stereocenter_Count is 0,Defined_Bond_Stereocenter_Count is 0,Undefined_Bond_Stereocenter_Count is 0,Covalently_Bonded_Unit_Count is 1,Compound_Is_Canonicalized is Yes,Physical_Description is Liquid;[MerckIndex]Clearlightyellowliquid;[Sigma-AldrichMSDS]"
ethane,CC,1.83,2.465,"cid is 7967,compound_name is Cyclohexanone,cid_paras is 7967,Molecular_Weight is 98.14,XLogP3 is 0.8,Hydrogen_Bond_Donor_Count is 0,Hydrogen_Bond_Acceptor_Count is 1,Rotatable_Bond_Count is 0,Exact_Mass is 98.073164938,Monoisotopic_Mass is 98.073164938,Topological_Polar_Surface_Area is 17.1,""Unit"":""Å²"",Heavy_Atom_Count is 7,Formal_Charge is 0,Complexity is 68.2,Isotope_Atom_Count is 0,Defined_Atom_Stereocenter_Count is 0,Undefined_Atom_Stereocenter_Count is 0,Defined_Bond_Stereocenter_Count is 0,Undefined_Bond_Stereocenter_Count is 0,Covalently_Bonded_Unit_Count is 1,Compound_Is_Canonicalized is Yes,Physical_Description is Cyclohexanoneappearsasacolorlesstopaleyellowliquidwithapleasantodor.Lessdensethanwater.Flashpoint111°F.Vaporsheavierthanair.Usedtomakenylon,asachemicalreactionmedium,andasasolvent."",""Markup"":[{""Start"":0,""Length"":13,""URL"":""https://pubchem.ncbi.nlm.nih.gov/compound/Cyclohexanone"",""Type"":""PubChemInternalLink"",""Extra"":""CID-7967"",Color/Form is OILYLIQUID,Odor is ODORREMINISCENTOFPEPPERMINT&ACETONE"",""Markup"":[{""Start"":33,""Length"":7,""URL"":""https://pubchem.ncbi.nlm.nih.gov/compound/ACETONE"",""Type"":""PubChemInternalLink"",""Extra"":""CID-180,Boiling_Point is 312.1°Fat760mmHg(NTP,1992),Melting_Point is 3°F(NTP,1992),Flash_Point is 111°F(NTP,1992),Solubility is 50to100mg/mLat64°F(NTP,1992),Density is 0.945at68°F(USCG,1999)-Lessdensethanwater;willfloat"",""Markup"":[{""Start"":46,""Length"":5,""URL"":""https://pubchem.ncbi.nlm.nih.gov/compound/water"",""Type"":""PubChemInternalLink"",""Extra"":""CID-962"
"1,2-dimethoxybenzene",COc1ccccc1OC,-5.33,-4.055,"cid is 12302,compound_name is 1-Nitrobutane,cid_paras is 12302,Molecular_Weight is 103.12,XLogP3 is 1.5,Hydrogen_Bond_Donor_Count is 0,Hydrogen_Bond_Acceptor_Count is 2,Rotatable_Bond_Count is 2,Exact_Mass is 103.063328530,Monoisotopic_Mass is 103.063328530,Topological_Polar_Surface_Area is 45.8,""Unit"":""Å²"",Heavy_Atom_Count is 7,Formal_Charge is 0,Complexity is 57.2,Isotope_Atom_Count is 0,Defined_Atom_Stereocenter_Count is 0,Undefined_Atom_Stereocenter_Count is 0,Defined_Bond_Stereocenter_Count is 0,Undefined_Bond_Stereocenter_Count is 0,Covalently_Bonded_Unit_Count is 1,Compound_Is_Canonicalized is Yes,Physical_Description is 1-nitrobutaneisacolorlessliquid.(NTP,1992)"",""Markup"":[{""Start"":0,""Length"":13,""URL"":""https://pubchem.ncbi.nlm.nih.gov/compound/1-nitrobutane"",""Type"":""PubChemInternalLink"",""Extra"":""CID-12302,Boiling_Point is 307°Fat760mmHg(NTP,1992),Solubility is Slightlysoluble(NTP,1992),Density is 0.971(NTP,1992)-Lessdensethanwater;willfloat"",""Markup"":[{""Start"":36,""Length"":5,""URL"":""https://pubchem.ncbi.nlm.nih.gov/compound/water"",""Type"":""PubChemInternalLink"",""Extra"":""CID-962"
ethylsulfanylethane,CCSCC,-1.46,0.299,"cid is 13389,compound_name is 4-Pyridinecarboxaldehyde,cid_paras is 13389,Molecular_Weight is 107.11,XLogP3 is 0.4,Hydrogen_Bond_Donor_Count is 0,Hydrogen_Bond_Acceptor_Count is 2,Rotatable_Bond_Count is 1,Exact_Mass is 107.037113783,Monoisotopic_Mass is 107.037113783,Topological_Polar_Surface_Area is 30,""Unit"":""Å²"",Heavy_Atom_Count is 8,Formal_Charge is 0,Complexity is 76.6,Isotope_Atom_Count is 0,Defined_Atom_Stereocenter_Count is 0,Undefined_Atom_Stereocenter_Count is 0,Defined_Bond_Stereocenter_Count is 0,Undefined_Bond_Stereocenter_Count is 0,Covalently_Bonded_Unit_Count is 1,Compound_Is_Canonicalized is Yes,Physical_Description is Yellowliquid;[AlfaAesarMSDS]"
pyridine-3-carbonitrile,c1cc(cnc1)C#N,-6.75,-5.582,"cid is 10326,compound_name is Indan,cid_paras is 10326,Molecular_Weight is 118.18,XLogP3 is 3.2,Hydrogen_Bond_Donor_Count is 0,Hydrogen_Bond_Acceptor_Count is 0,Rotatable_Bond_Count is 0,Exact_Mass is 118.078250319,Monoisotopic_Mass is 118.078250319,Topological_Polar_Surface_Area is 0,""Unit"":""Å²"",Heavy_Atom_Count is 9,Formal_Charge is 0,Complexity is 84.2,Isotope_Atom_Count is 0,Defined_Atom_Stereocenter_Count is 0,Undefined_Atom_Stereocenter_Count is 0,Defined_Bond_Stereocenter_Count is 0,Undefined_Bond_Stereocenter_Count is 0,Covalently_Bonded_Unit_Count is 1,Compound_Is_Canonicalized is Yes,Physical_Description is Liquid;[MerckIndex]Clearlightyellowliquid;[Sigma-AldrichMSDS]"
"3,4-dichlorophenol",c1cc(c(cc1O)Cl)Cl,-7.29,-5.139,"cid is 6587,compound_name is Nitroethane,cid_paras is 6587,Molecular_Weight is 75.07,XLogP3 is 0.2,Hydrogen_Bond_Donor_Count is 0,Hydrogen_Bond_Acceptor_Count is 2,Rotatable_Bond_Count is 0,Exact_Mass is 75.032028402,Monoisotopic_Mass is 75.032028402,Topological_Polar_Surface_Area is 45.8,""Unit"":""Å²"",Heavy_Atom_Count is 5,Formal_Charge is 0,Complexity is 37.4,Isotope_Atom_Count is 0,Defined_Atom_Stereocenter_Count is 0,Undefined_Atom_Stereocenter_Count is 0,Defined_Bond_Stereocenter_Count is 0,Undefined_Bond_Stereocenter_Count is 0,Covalently_Bonded_Unit_Count is 1,Compound_Is_Canonicalized is Yes,Physical_Description is Nitroethaneappearsasacolorlessoilyliquidwithapleasantodor.Flashpointof82°F.Decomposesabove350°F.Density1.052g/cm3.Vaporsmuchheavierthanair.andinsolubleinwater.Vaporsmayirritateskin,eyesandmucousmembranes.Producestoxicoxidesofnitrogenduringcombustion.Usedasapropellantandasasolvent."",""Markup"":[{""Start"":0,""Length"":11,""URL"":""https://pubchem.ncbi.nlm.nih.gov/compound/Nitroethane"",""Type"":""PubChemInternalLink"",""Extra"":""CID-6587"",Color/Form is Colorlessliquid,Odor is Moderatetostrongdisagreeableodor,Boiling_Point is 239°Fat760mmHg(NTP,1992),Melting_Point is -130°F(NTP,1992),Flash_Point is 106°F(NTP,1992),Solubility is Slightlysoluble(NTP,1992),Density is 1.05at68°F(USCG,1999)-Denserthanwater;willsink"",""Markup"":[{""Start"":41,""Length"":5,""URL"":""https://pubchem.ncbi.nlm.nih.gov/compound/water"",""Type"":""PubChemInternalLink"",""Extra"":""CID-962"
anisole,COc1ccccc1,-2.45,-2.318,"cid is 12287,compound_name is 3-Chloropyridine,cid_paras is 12287,Molecular_Weight is 113.54,XLogP3 is 1.3,Hydrogen_Bond_Donor_Count is 0,Hydrogen_Bond_Acceptor_Count is 1,Rotatable_Bond_Count is 0,Exact_Mass is 113.0032268,Monoisotopic_Mass is 113.0032268,Topological_Polar_Surface_Area is 12.9,""Unit"":""Å²"",Heavy_Atom_Count is 7,Formal_Charge is 0,Complexity is 56,Isotope_Atom_Count is 0,Defined_Atom_Stereocenter_Count is 0,Undefined_Atom_Stereocenter_Count is 0,Defined_Bond_Stereocenter_Count is 0,Undefined_Bond_Stereocenter_Count is 0,Covalently_Bonded_Unit_Count is 1,Compound_Is_Canonicalized is Yes,Physical_Description is Clear,colorlesstolightyellowliquid;,Color/Form is Clearliquid,Boiling_Point is 151°C,Flash_Point is 66°C(151°F)-closedcup,Solubility is Slightlysolubleinwater"
"2,5-dimethylphenol",Cc1ccc(c(c1)O)C,-5.91,-5.014,"cid is 6323,compound_name is Bromomethane,cid_paras is 6323,Molecular_Weight is 94.94,XLogP3 is 1,Hydrogen_Bond_Donor_Count is 0,Hydrogen_Bond_Acceptor_Count is 0,Rotatable_Bond_Count is 0,Exact_Mass is 93.94181,Monoisotopic_Mass is 93.94181,Topological_Polar_Surface_Area is 0,""Unit"":""Å²"",Heavy_Atom_Count is 2,Formal_Charge is 0,Complexity is 2,Isotope_Atom_Count is 0,Defined_Atom_Stereocenter_Count is 0,Undefined_Atom_Stereocenter_Count is 0,Defined_Bond_Stereocenter_Count is 0,Undefined_Bond_Stereocenter_Count is 0,Covalently_Bonded_Unit_Count is 1,Compound_Is_Canonicalized is Yes,Physical_Description is Methylbromideappearsascolorlesshighlytoxicvolatileliquidoragas.Boilingpoint3.56°C(38.41°F).Usuallyodorless,buthasasweetishchloroform-likeodorathighconcentrations.Usedasaninsecticide,arodenticide,afumigant,anematocide,achemicalintermediateandasafireextinguishingagent.(EPA,1998)"",""Markup"":[{""Start"":0,""Length"":14,""URL"":""https://pubchem.ncbi.nlm.nih.gov/compound/Methyl%20bromide"",""Type"":""PubChemInternalLink"",""Extra"":""CID-6323"",Color/Form is Colorless,transparent,easilyliquifiedgasorvolatileliquid,Odor is Usuallyodorless;sweetish,chloroform-likeodorathighconcentrations"",""Markup"":[{""Start"":28,""Length"":10,""URL"":""https://pubchem.ncbi.nlm.nih.gov/compound/chloroform"",""Type"":""PubChemInternalLink"",""Extra"":""CID-6212,Boiling_Point is 38.4°Fat760mmHg(EPA,1998),Melting_Point is -136°F(EPA,1998),Flash_Point is None(EPA,1998),Solubility is 2%(NIOSH,2024),Density is 1.73at32°F(EPA,1998)-Denserthanwater;willsink"",""Markup"":[{""Start"":40,""Length"":5,""URL"":""https://pubchem.ncbi.nlm.nih.gov/compound/water"",""Type"":""PubChemInternalLink"",""Extra"":""CID-962"
"1,4-dichlorobenzene",c1cc(ccc1Cl)Cl,-1.01,-0.19,"cid is 887,compound_name is Methanol,cid_paras is 887,Molecular_Weight is 32.042,XLogP3 is -0.5,Hydrogen_Bond_Donor_Count is 1,Hydrogen_Bond_Acceptor_Count is 1,Rotatable_Bond_Count is 0,Exact_Mass is 32.026214747,Monoisotopic_Mass is 32.026214747,Topological_Polar_Surface_Area is 20.2,""Unit"":""Å²"",Heavy_Atom_Count is 2,Formal_Charge is 0,Complexity is 2,Isotope_Atom_Count is 0,Defined_Atom_Stereocenter_Count is 0,Undefined_Atom_Stereocenter_Count is 0,Defined_Bond_Stereocenter_Count is 0,Undefined_Bond_Stereocenter_Count is 0,Covalently_Bonded_Unit_Count is 1,Compound_Is_Canonicalized is Yes,Physical_Description is Methanolappearsasacolorlessfairlyvolatileliquidwithafaintlysweetpungentodorlikethatofethylalcohol.Completelymixeswithwater.Thevaporsareslightlyheavierthanairandmaytravelsomedistancetoasourceofignitionandflashback.Anyaccumulationofvaporsinconfinedspaces,suchasbuildingsorsewers,mayexplodeifignited.Usedtomakechemicals,toremovewaterfromautomotiveandaviationfuels,asasolventforpaintsandplastics,andasaningredientinawidevarietyofproducts."",""Markup"":[{""Start"":0,""Length"":8,""URL"":""https://pubchem.ncbi.nlm.nih.gov/compound/Methanol"",""Type"":""PubChemInternalLink"",""Extra"":""CID-887"",Color/Form is Colorlessliquid,Odor is Slightalcoholicodorwhenpure;repulsive,pungentodorwhencrude,Boiling_Point is 148.3°Fat760mmHg(NTP,1992),Melting_Point is -144°F(NTP,1992),Flash_Point is 52°F(NTP,1992),Solubility is greaterthanorequalto100mg/mLat70°F(NTP,1992),Density is 0.792at68°F(USCG,1999)-Lessdensethanwater;willfloat"",""Markup"":[{""Start"":46,""Length"":5,""URL"":""https://pubchem.ncbi.nlm.nih.gov/compound/water"",""Type"":""PubChemInternalLink"",""Extra"":""CID-962"
chloro-fluoro-methane,C(F)Cl,-0.77,-0.171,"cid is 8130,compound_name is Heptanal,cid_paras is 8130,Molecular_Weight is 114.19,XLogP3 is 2.3,Hydrogen_Bond_Donor_Count is 0,Hydrogen_Bond_Acceptor_Count is 1,Rotatable_Bond_Count is 5,Exact_Mass is 114.104465066,Monoisotopic_Mass is 114.104465066,Topological_Polar_Surface_Area is 17.1,""Unit"":""Å²"",Heavy_Atom_Count is 8,Formal_Charge is 0,Complexity is 50.3,Isotope_Atom_Count is 0,Defined_Atom_Stereocenter_Count is 0,Undefined_Atom_Stereocenter_Count is 0,Defined_Bond_Stereocenter_Count is 0,Undefined_Bond_Stereocenter_Count is 0,Covalently_Bonded_Unit_Count is 1,Compound_Is_Canonicalized is Yes,Physical_Description is N-heptaldehydeappearsasacolorless,oilyliquidwithapenetratingfruityodor.Insolubleinwaterandlessdensethanwater.Hencefloatsonwater.Usedtomakeperfumesandpharmaceuticals."",""Markup"":[{""Start"":0,""Length"":14,""URL"":""https://pubchem.ncbi.nlm.nih.gov/compound/N-heptaldehyde"",""Type"":""PubChemInternalLink"",""Extra"":""CID-8130"",Color/Form is Oilycolorlessliquid,Odor is FATTY,PUNGENTODOR,Boiling_Point is 307°Fat760mmHg(NTP,1992),Melting_Point is -45°F(NTP,1992),Flash_Point is 95°F(NTP,1992),Solubility is lessthan1mg/mLat70°F(NTP,1992),Density is 0.8495at68°F(NTP,1992)-Lessdensethanwater;willfloat"",""Markup"":[{""Start"":46,""Length"":5,""URL"":""https://pubchem.ncbi.nlm.nih.gov/compound/water"",""Type"":""PubChemInternalLink"",""Extra"":""CID-962"
pent-1-ene,CCCC=C,1.68,2.532,"cid is 27588,compound_name is 2,2',6,6'-Tetrachlorobiphenyl,cid_paras is 27588,Molecular_Weight is 292.0,XLogP3 is 5.9,Hydrogen_Bond_Donor_Count is 0,Hydrogen_Bond_Acceptor_Count is 0,Rotatable_Bond_Count is 1,Exact_Mass is 291.919411,Monoisotopic_Mass is 289.922361,Topological_Polar_Surface_Area is 0,""Unit"":""Å²"",Heavy_Atom_Count is 16,Formal_Charge is 0,Complexity is 189,Isotope_Atom_Count is 0,Defined_Atom_Stereocenter_Count is 0,Undefined_Atom_Stereocenter_Count is 0,Defined_Bond_Stereocenter_Count is 0,Undefined_Bond_Stereocenter_Count is 0,Covalently_Bonded_Unit_Count is 1,Compound_Is_Canonicalized is Yes"
"1,2,3,4-tetrachlorobenzene",c1cc(c(c(c1Cl)Cl)Cl)Cl,-1.34,-0.304,"cid is 6946,compound_name is 2-Nitroaniline,cid_paras is 6946,Molecular_Weight is 138.12,XLogP3 is 1.9,Hydrogen_Bond_Donor_Count is 1,Hydrogen_Bond_Acceptor_Count is 3,Rotatable_Bond_Count is 0,Exact_Mass is 138.042927438,Monoisotopic_Mass is 138.042927438,Topological_Polar_Surface_Area is 71.8,""Unit"":""Å²"",Heavy_Atom_Count is 10,Formal_Charge is 0,Complexity is 132,Isotope_Atom_Count is 0,Defined_Atom_Stereocenter_Count is 0,Undefined_Atom_Stereocenter_Count is 0,Defined_Bond_Stereocenter_Count is 0,Undefined_Bond_Stereocenter_Count is 0,Covalently_Bonded_Unit_Count is 1,Compound_Is_Canonicalized is Yes,Physical_Description is O-nitroanilineisanorangesolidwithamustyodor.Sinksandmixesslowlywithwater.(USCG,1999)"",""Markup"":[{""Start"":0,""Length"":14,""URL"":""https://pubchem.ncbi.nlm.nih.gov/compound/O-nitroaniline"",""Type"":""PubChemInternalLink"",""Extra"":""CID-6946"",Color/Form is Yellow-orangecrystalsfromboilingwater"",""Markup"":[{""Start"":36,""Length"":5,""URL"":""https://pubchem.ncbi.nlm.nih.gov/compound/water"",""Type"":""PubChemInternalLink"",""Extra"":""CID-962,Odor is Musty,Boiling_Point is 543°Fat760mmHg(NTP,1992),Melting_Point is 160.7°F(NTP,1992),Flash_Point is 335°F(NTP,1992),Solubility is lessthan1mg/mLat70.7°F(NTP,1992),Density is 1.44at68°F(USCG,1999)-Denserthanwater;willsink"",""Markup"":[{""Start"":41,""Length"":5,""URL"":""https://pubchem.ncbi.nlm.nih.gov/compound/water"",""Type"":""PubChemInternalLink"",""Extra"":""CID-962"
hept-1-yne,CCCCCC#C,0.6,0.639,"cid is 10326,compound_name is Indan,cid_paras is 10326,Molecular_Weight is 118.18,XLogP3 is 3.2,Hydrogen_Bond_Donor_Count is 0,Hydrogen_Bond_Acceptor_Count is 0,Rotatable_Bond_Count is 0,Exact_Mass is 118.078250319,Monoisotopic_Mass is 118.078250319,Topological_Polar_Surface_Area is 0,""Unit"":""Å²"",Heavy_Atom_Count is 9,Formal_Charge is 0,Complexity is 84.2,Isotope_Atom_Count is 0,Defined_Atom_Stereocenter_Count is 0,Undefined_Atom_Stereocenter_Count is 0,Defined_Bond_Stereocenter_Count is 0,Undefined_Bond_Stereocenter_Count is 0,Covalently_Bonded_Unit_Count is 1,Compound_Is_Canonicalized is Yes,Physical_Description is Liquid;[MerckIndex]Clearlightyellowliquid;[Sigma-AldrichMSDS]"
decan-2-one,CCCCCCCCC(=O)C,-2.34,-2.573,"cid is 454,compound_name is Octanal,cid_paras is 454,Molecular_Weight is 128.21,XLogP3 is 2.7,Hydrogen_Bond_Donor_Count is 0,Hydrogen_Bond_Acceptor_Count is 1,Rotatable_Bond_Count is 6,Exact_Mass is 128.120115130,Monoisotopic_Mass is 128.120115130,Topological_Polar_Surface_Area is 17.1,""Unit"":""Å²"",Heavy_Atom_Count is 9,Formal_Charge is 0,Complexity is 59.6,Isotope_Atom_Count is 0,Defined_Atom_Stereocenter_Count is 0,Undefined_Atom_Stereocenter_Count is 0,Defined_Bond_Stereocenter_Count is 0,Undefined_Bond_Stereocenter_Count is 0,Covalently_Bonded_Unit_Count is 1,Compound_Is_Canonicalized is Yes,Physical_Description is N-octylaldehydeisacolorlessliquidswithastrongfruityodor.Lessdensethanwaterandinsolubleinwater.Flashpoints125°F.Usedinmakingperfumesandflavorings."",""Markup"":[{""Start"":82,""Length"":5,""URL"":""https://pubchem.ncbi.nlm.nih.gov/compound/water"",""Type"":""PubChemInternalLink"",""Extra"":""CID-962"",Color/Form is Colorlessliquid,Odor is Strong,fruityodor,Boiling_Point is 171°C,Melting_Point is -23°C,Flash_Point is 125°F(USCG,1999),Solubility is Inwater,5.6X10+2mg/Lat25°C"",""Markup"":[{""Start"":3,""Length"":5,""URL"":""https://pubchem.ncbi.nlm.nih.gov/compound/water"",""Type"":""PubChemInternalLink"",""Extra"":""CID-962,Density is 0.82to0.83(USCG,1999)"
chlorobenzene,c1ccc(cc1)Cl,-1.12,-0.475,"cid is 7416,compound_name is Nitrobenzene,cid_paras is 7416,Molecular_Weight is 123.11,XLogP3 is 1.9,Hydrogen_Bond_Donor_Count is 0,Hydrogen_Bond_Acceptor_Count is 2,Rotatable_Bond_Count is 0,Exact_Mass is 123.032028402,Monoisotopic_Mass is 123.032028402,Topological_Polar_Surface_Area is 45.8,""Unit"":""Å²"",Heavy_Atom_Count is 9,Formal_Charge is 0,Complexity is 102,Isotope_Atom_Count is 0,Defined_Atom_Stereocenter_Count is 0,Undefined_Atom_Stereocenter_Count is 0,Defined_Bond_Stereocenter_Count is 0,Undefined_Bond_Stereocenter_Count is 0,Covalently_Bonded_Unit_Count is 1,Compound_Is_Canonicalized is Yes,Physical_Description is Nitrobenzeneappearsasapaleyellowtodarkbrownliquid.Flashpoint190°F.Veryslightlysolubleinwater.Toxicbyinhalationandbyskinabsorption.Combustiongivetoxicoxidesofnitrogen.Density10.0lb/gal."",""Markup"":[{""Start"":0,""Length"":12,""URL"":""https://pubchem.ncbi.nlm.nih.gov/compound/Nitrobenzene"",""Type"":""PubChemInternalLink"",""Extra"":""CID-7416"",Color/Form is Greenish-yellowcrystalsoryellow,oilyliquid,Odor is Odorofvolatileoilalmond,Boiling_Point is 411.4°Fat760mmHg(EPA,1998),Melting_Point is 42°F(EPA,1998),Flash_Point is 190.4°F(EPA,1998),Solubility is Insoluble(<1mg/mlat75°F)(NTP,1992),Density is 1.2037at68°F(EPA,1998)-Denserthanwater;willsink"",""Markup"":[{""Start"":42,""Length"":5,""URL"":""https://pubchem.ncbi.nlm.nih.gov/compound/water"",""Type"":""PubChemInternalLink"",""Extra"":""CID-962"