iupac,smiles,expt,calc,Description
4-tert-butylphenol,CC(C)(C)c1ccc(cc1)O,-5.91,-5.543,"cid is 7749,compound_name is Ethyl propionate,cid_paras is 7749,Molecular_Weight is 102.13,XLogP3 is 1.2,Hydrogen_Bond_Donor_Count is 0,Hydrogen_Bond_Acceptor_Count is 2,Rotatable_Bond_Count is 3,Exact_Mass is 102.068079557,Monoisotopic_Mass is 102.068079557,Topological_Polar_Surface_Area is 26.3,""Unit"":""Å²"",Heavy_Atom_Count is 7,Formal_Charge is 0,Complexity is 59.1,Isotope_Atom_Count is 0,Defined_Atom_Stereocenter_Count is 0,Undefined_Atom_Stereocenter_Count is 0,Defined_Bond_Stereocenter_Count is 0,Undefined_Bond_Stereocenter_Count is 0,Covalently_Bonded_Unit_Count is 1,Compound_Is_Canonicalized is Yes,Physical_Description is Ethylpropionateappearsasaclearcolorlessliquidwithapineapple-likeodor.Flashpoint54°F.Lessdensethanwaterandinsolubleinwater.Vaporsareheavierthanair."",""Markup"":[{""Start"":0,""Length"":16,""URL"":""https://pubchem.ncbi.nlm.nih.gov/compound/Ethyl%20propionate"",""Type"":""PubChemInternalLink"",""Extra"":""CID-7749"",Color/Form is Colorlessliquid,Odor is REMINISCENTOFRUM&PINEAPPLE,Boiling_Point is 210°Fat760mmHg(USCG,1999),Melting_Point is -99°F(USCG,1999),Flash_Point is 54°F(USCG,1999),Solubility is SOLUBLEINMOSTORGANICSOLVENTS,Density is 0.891(USCG,1999)-Lessdensethanwater;willfloat"",""Markup"":[{""Start"":37,""Length"":5,""URL"":""https://pubchem.ncbi.nlm.nih.gov/compound/water"",""Type"":""PubChemInternalLink"",""Extra"":""CID-962"
isopentyl formate,CC(C)CCOC=O,-2.13,-3.414,"cid is 8141,compound_name is Nonane,cid_paras is 8141,Molecular_Weight is 128.25,XLogP3 is 4.5,Hydrogen_Bond_Donor_Count is 0,Hydrogen_Bond_Acceptor_Count is 0,Rotatable_Bond_Count is 6,Exact_Mass is 128.156500638,Monoisotopic_Mass is 128.156500638,Topological_Polar_Surface_Area is 0,""Unit"":""Å²"",Heavy_Atom_Count is 9,Formal_Charge is 0,Complexity is 33.3,Isotope_Atom_Count is 0,Defined_Atom_Stereocenter_Count is 0,Undefined_Atom_Stereocenter_Count is 0,Defined_Bond_Stereocenter_Count is 0,Undefined_Bond_Stereocenter_Count is 0,Covalently_Bonded_Unit_Count is 1,Compound_Is_Canonicalized is Yes,Physical_Description is N-nonaneappearsasaclearcolorlessliquidwithasharpodor.Flashpoint86°F.Insolubleinwaterandlessdensethanwater.Contactmayirritateeyesandpossiblyinjurythecornea.Mayirritateskin.Vaporinhalationmaycauseirritation.Prolongedinhalationmayleadtobreathingdifficulty.Ingestioncausesabdominaldiscomfort,nauseaanddiarrhea."",""Markup"":[{""Start"":0,""Length"":8,""URL"":""https://pubchem.ncbi.nlm.nih.gov/compound/N-nonane"",""Type"":""PubChemInternalLink"",""Extra"":""CID-8141"",Color/Form is Colorlessliquid,Odor is Gasoline-likeodor,Boiling_Point is 303.4°Fat760mmHg(NTP,1992),Melting_Point is -60°F(NTP,1992),Flash_Point is 88°F(NTP,1992),Solubility is lessthan1mg/mLat70°F(NTP,1992),Density is 0.718at68°F(USCG,1999)-Lessdensethanwater;willfloat"",""Markup"":[{""Start"":46,""Length"":5,""URL"":""https://pubchem.ncbi.nlm.nih.gov/compound/water"",""Type"":""PubChemInternalLink"",""Extra"":""CID-962"
decan-1-ol,CCCCCCCCCCO,-3.64,-2.446,"cid is 6582,compound_name is N-Methylacetamide,cid_paras is 6582,Molecular_Weight is 73.09,XLogP3 is -1.1,Hydrogen_Bond_Donor_Count is 1,Hydrogen_Bond_Acceptor_Count is 1,Rotatable_Bond_Count is 0,Exact_Mass is 73.052763847,Monoisotopic_Mass is 73.052763847,Topological_Polar_Surface_Area is 29.1,""Unit"":""Å²"",Heavy_Atom_Count is 5,Formal_Charge is 0,Complexity is 42.2,Isotope_Atom_Count is 0,Defined_Atom_Stereocenter_Count is 0,Undefined_Atom_Stereocenter_Count is 0,Defined_Bond_Stereocenter_Count is 0,Undefined_Bond_Stereocenter_Count is 0,Covalently_Bonded_Unit_Count is 1,Compound_Is_Canonicalized is Yes,Physical_Description is Solid;mp=28degC;[HSDB]Whitecrystallinesolid;mp=26-28degC;[AlfaAesarMSDS],Color/Form is NEEDLES,Boiling_Point is 205°C,Melting_Point is 28°C,Flash_Point is 108°C,Solubility is SOLINCHLOROFORM,Density is 0.9371@25°C/4°C"
ethyl propanoate,CCC(=O)OCC,-2.68,-3.221,"cid is 31285,compound_name is 1-Nonene,cid_paras is 31285,Molecular_Weight is 126.24,XLogP3 is 5.2,Hydrogen_Bond_Donor_Count is 0,Hydrogen_Bond_Acceptor_Count is 0,Rotatable_Bond_Count is 6,Exact_Mass is 126.140850574,Monoisotopic_Mass is 126.140850574,Topological_Polar_Surface_Area is 0,""Unit"":""Å²"",Heavy_Atom_Count is 9,Formal_Charge is 0,Complexity is 55.1,Isotope_Atom_Count is 0,Defined_Atom_Stereocenter_Count is 0,Undefined_Atom_Stereocenter_Count is 0,Defined_Bond_Stereocenter_Count is 0,Undefined_Bond_Stereocenter_Count is 0,Covalently_Bonded_Unit_Count is 1,Compound_Is_Canonicalized is Yes,Physical_Description is 1-noneneisacolorlessliquidwithanodorofgasoline.Floatsonwater.Flammable,irritatingvaporisproduced."",""Markup"":[{""Start"":0,""Length"":8,""URL"":""https://pubchem.ncbi.nlm.nih.gov/compound/1-nonene"",""Type"":""PubChemInternalLink"",""Extra"":""CID-31285"",Color/Form is Colorlessliquid,Odor is Strong,grassy,onion,rancid,Boiling_Point is 297°Fat760mmHg(USCG,1999),Melting_Point is -115°F(USCG,1999),Flash_Point is 78°F(USCG,1999),Solubility is Insolinwater,solubleinalcohol"",""Markup"":[{""Start"":9,""Length"":5,""URL"":""https://pubchem.ncbi.nlm.nih.gov/compound/water"",""Type"":""PubChemInternalLink"",""Extra"":""CID-962,Density is 0.733at68°F(USCG,1999)-Lessdensethanwater;willfloat"",""Markup"":[{""Start"":46,""Length"":5,""URL"":""https://pubchem.ncbi.nlm.nih.gov/compound/water"",""Type"":""PubChemInternalLink"",""Extra"":""CID-962"
nonane,CCCCCCCCC,3.13,3.221,"cid is 8663,compound_name is 2-Naphthol,cid_paras is 8663,Molecular_Weight is 144.17,XLogP3 is 2.7,Hydrogen_Bond_Donor_Count is 1,Hydrogen_Bond_Acceptor_Count is 1,Rotatable_Bond_Count is 0,Exact_Mass is 144.057514874,Monoisotopic_Mass is 144.057514874,Topological_Polar_Surface_Area is 20.2,""Unit"":""Å²"",Heavy_Atom_Count is 11,Formal_Charge is 0,Complexity is 133,Isotope_Atom_Count is 0,Defined_Atom_Stereocenter_Count is 0,Undefined_Atom_Stereocenter_Count is 0,Defined_Bond_Stereocenter_Count is 0,Undefined_Bond_Stereocenter_Count is 0,Covalently_Bonded_Unit_Count is 1,Compound_Is_Canonicalized is Yes,Physical_Description is DryPowder,Color/Form is White,lustrious,bulkyleafletsorwhitepowder.Darkenswithage,Odor is Faintphenol-likeodor,Boiling_Point is 285°C,Melting_Point is 121.6°C,Flash_Point is 152.7°C,Solubility is Inwater,7.55X10+2mg/Lat25°C"",""Markup"":[{""Start"":3,""Length"":5,""URL"":""https://pubchem.ncbi.nlm.nih.gov/compound/water"",""Type"":""PubChemInternalLink"",""Extra"":""CID-962,Density is 1.28g/cucmat20°C"
N-methylacetamide,CC(=O)NC,-10.0,-8.276,"cid is 13,compound_name is 1,2,4-Trichlorobenzene,cid_paras is 13,Molecular_Weight is 181.4,XLogP3 is 4,Hydrogen_Bond_Donor_Count is 0,Hydrogen_Bond_Acceptor_Count is 0,Rotatable_Bond_Count is 0,Exact_Mass is 179.930033,Monoisotopic_Mass is 179.930033,Topological_Polar_Surface_Area is 0,""Unit"":""Å²"",Heavy_Atom_Count is 9,Formal_Charge is 0,Complexity is 94.3,Isotope_Atom_Count is 0,Defined_Atom_Stereocenter_Count is 0,Undefined_Atom_Stereocenter_Count is 0,Defined_Bond_Stereocenter_Count is 0,Undefined_Bond_Stereocenter_Count is 0,Covalently_Bonded_Unit_Count is 1,Compound_Is_Canonicalized is Yes,Physical_Description is 1,2,4-trichlorobenzeneappearsascolorlessliquidorwhitesolidwithasharpchlorobenzeneodor.Meltingpoint16.95°C(62.5°F).(USCG,1999)"",""Markup"":[{""Start"":0,""Length"":22,""URL"":""https://pubchem.ncbi.nlm.nih.gov/compound/1%2C2%2C4-trichlorobenzene"",""Type"":""PubChemInternalLink"",""Extra"":""CID-13"",Color/Form is Colorlessliquid,Odor is Aromaticodor,Boiling_Point is 415°Fat760mmHg(NTP,1992),Melting_Point is 63°F(NTP,1992),Flash_Point is 230°F(NTP,1992),Solubility is lessthan1mg/mLat70°F(NTP,1992),Density is 1.454at68°F(USCG,1999)-Denserthanwater;willsink"",""Markup"":[{""Start"":42,""Length"":5,""URL"":""https://pubchem.ncbi.nlm.nih.gov/compound/water"",""Type"":""PubChemInternalLink"",""Extra"":""CID-962"
non-1-ene,CCCCCCCC=C,2.06,2.995,"cid is 6251,compound_name is Mannitol,cid_paras is 6251,Molecular_Weight is 182.17,XLogP3 is -3.1,Hydrogen_Bond_Donor_Count is 6,Hydrogen_Bond_Acceptor_Count is 6,Rotatable_Bond_Count is 5,Exact_Mass is 182.07903816,Monoisotopic_Mass is 182.07903816,Topological_Polar_Surface_Area is 121,""Unit"":""Å²"",Heavy_Atom_Count is 12,Formal_Charge is 0,Complexity is 105,Isotope_Atom_Count is 0,Defined_Atom_Stereocenter_Count is 4,Undefined_Atom_Stereocenter_Count is 0,Defined_Bond_Stereocenter_Count is 0,Undefined_Bond_Stereocenter_Count is 0,Covalently_Bonded_Unit_Count is 1,Compound_Is_Canonicalized is Yes,Physical_Description is D-mannitolappearsasodorlesswhitecrystallinepowderorfree-flowinggranules.Sweettaste.(NTP,1992)"",""Markup"":[{""Start"":0,""Length"":10,""URL"":""https://pubchem.ncbi.nlm.nih.gov/compound/D-mannitol"",""Type"":""PubChemInternalLink"",""Extra"":""CID-6251,Color/Form is Orthorhombicneedlesfromalc,Odor is Odorless,Boiling_Point is 563°Fat3.5mmHg(NTP,1992),Melting_Point is 331to334°F(NTP,1992),Flash_Point is greaterthan300°F(NTP,1992),Solubility is greaterthanorequalto100mg/mLat68°F(NTP,1992),Density is 1.489at68°F(NTP,1992)-Denserthanwater;willsink"",""Markup"":[{""Start"":41,""Length"":5,""URL"":""https://pubchem.ncbi.nlm.nih.gov/compound/water"",""Type"":""PubChemInternalLink"",""Extra"":""CID-962"
naphthalen-2-ol,c1ccc2cc(ccc2c1)O,-8.11,-7.849,"cid is 12180,compound_name is Methyl butyrate,cid_paras is 12180,Molecular_Weight is 102.13,XLogP3 is 1.3,Hydrogen_Bond_Donor_Count is 0,Hydrogen_Bond_Acceptor_Count is 2,Rotatable_Bond_Count is 3,Exact_Mass is 102.068079557,Monoisotopic_Mass is 102.068079557,Topological_Polar_Surface_Area is 26.3,""Unit"":""Å²"",Heavy_Atom_Count is 7,Formal_Charge is 0,Complexity is 59.1,Isotope_Atom_Count is 0,Defined_Atom_Stereocenter_Count is 0,Undefined_Atom_Stereocenter_Count is 0,Defined_Bond_Stereocenter_Count is 0,Undefined_Bond_Stereocenter_Count is 0,Covalently_Bonded_Unit_Count is 1,Compound_Is_Canonicalized is Yes,Physical_Description is Methylbutyrateappearsasaclearcolorlessliquid.Flashpoint57°F.Lessdensethanwaterandslightlysolubleinwater.Hencefloatsonwater.Vaporsheavierthanair."",""Markup"":[{""Start"":0,""Length"":15,""URL"":""https://pubchem.ncbi.nlm.nih.gov/compound/Methyl%20butyrate"",""Type"":""PubChemInternalLink"",""Extra"":""CID-12180"",Color/Form is Colorlessliquid,Odor is APPLE-LIKEODOR,Boiling_Point is 216°Fat760mmHg(NTP,1992),Melting_Point is -139°F(NTP,1992),Flash_Point is 57°F(NTP,1992),Solubility is 10to50mg/mLat72°F(NTP,1992),Density is 0.8984at68°F(USCG,1999)-Lessdensethanwater;willfloat"",""Markup"":[{""Start"":47,""Length"":5,""URL"":""https://pubchem.ncbi.nlm.nih.gov/compound/water"",""Type"":""PubChemInternalLink"",""Extra"":""CID-962"
"1,2,4-trichlorobenzene",c1cc(c(cc1Cl)Cl)Cl,-1.12,-0.117,"cid is 6998,compound_name is Salicylaldehyde,cid_paras is 6998,Molecular_Weight is 122.12,XLogP3 is 1.8,Hydrogen_Bond_Donor_Count is 1,Hydrogen_Bond_Acceptor_Count is 2,Rotatable_Bond_Count is 1,Exact_Mass is 122.036779430,Monoisotopic_Mass is 122.036779430,Topological_Polar_Surface_Area is 37.3,""Unit"":""Å²"",Heavy_Atom_Count is 9,Formal_Charge is 0,Complexity is 101,Isotope_Atom_Count is 0,Defined_Atom_Stereocenter_Count is 0,Undefined_Atom_Stereocenter_Count is 0,Defined_Bond_Stereocenter_Count is 0,Undefined_Bond_Stereocenter_Count is 0,Covalently_Bonded_Unit_Count is 1,Compound_Is_Canonicalized is Yes,Physical_Description is Liquid;colorlessorpaleyellow;bitteralmondodor.Sinksandmixesslowlyinwater.(USCG,1999)"",""Markup"":[{""Start"":80,""Length"":5,""URL"":""https://pubchem.ncbi.nlm.nih.gov/compound/water"",""Type"":""PubChemInternalLink"",""Extra"":""CID-962,Color/Form is Liquid,Odor is Bitter,almond-likeodor,Boiling_Point is 386°Fat760mmHg(USCG,1999),Melting_Point is 19.4°F(USCG,1999),Flash_Point is 172°F(USCG,1999),Solubility is Solubilityinwater,1.7X10+4mg/Lat86°C"",""Markup"":[{""Start"":14,""Length"":5,""URL"":""https://pubchem.ncbi.nlm.nih.gov/compound/water"",""Type"":""PubChemInternalLink"",""Extra"":""CID-962,Density is 1.1674at68°F(USCG,1999)-Denserthanwater;willsink"",""Markup"":[{""Start"":43,""Length"":5,""URL"":""https://pubchem.ncbi.nlm.nih.gov/compound/water"",""Type"":""PubChemInternalLink"",""Extra"":""CID-962"
"(2R,3R,4R,5R)-Hexan-1,2,3,4,5,6-hexol",C([C@H]([C@H]([C@@H]([C@@H](CO)O)O)O)O)O,-23.62,-18.162,"cid is 10422,compound_name is Azetidine,cid_paras is 10422,Molecular_Weight is 57.09,XLogP3 is -0.1,Hydrogen_Bond_Donor_Count is 1,Hydrogen_Bond_Acceptor_Count is 1,Rotatable_Bond_Count is 0,Exact_Mass is 57.057849228,Monoisotopic_Mass is 57.057849228,Topological_Polar_Surface_Area is 12,""Unit"":""Å²"",Heavy_Atom_Count is 4,Formal_Charge is 0,Complexity is 17.2,Isotope_Atom_Count is 0,Defined_Atom_Stereocenter_Count is 0,Undefined_Atom_Stereocenter_Count is 0,Defined_Bond_Stereocenter_Count is 0,Undefined_Bond_Stereocenter_Count is 0,Covalently_Bonded_Unit_Count is 1,Compound_Is_Canonicalized is Yes"
methyl butanoate,CCCC(=O)OC,-2.83,-3.552,"cid is 8902,compound_name is Dipropylamine,cid_paras is 8902,Molecular_Weight is 101.19,XLogP3 is 1.7,Hydrogen_Bond_Donor_Count is 1,Hydrogen_Bond_Acceptor_Count is 1,Rotatable_Bond_Count is 4,Exact_Mass is 101.120449483,Monoisotopic_Mass is 101.120449483,Topological_Polar_Surface_Area is 12,""Unit"":""Å²"",Heavy_Atom_Count is 7,Formal_Charge is 0,Complexity is 23.4,Isotope_Atom_Count is 0,Defined_Atom_Stereocenter_Count is 0,Undefined_Atom_Stereocenter_Count is 0,Defined_Bond_Stereocenter_Count is 0,Undefined_Bond_Stereocenter_Count is 0,Covalently_Bonded_Unit_Count is 1,Compound_Is_Canonicalized is Yes,Physical_Description is Dipropylamineappearsasaclearcolorlessliquidwithanammonia-likeodor.Lessdensethanwater.Vaporsheavierthanair.Toxicoxidesofnitrogenproducedduringcombustion."",""Markup"":[{""Start"":0,""Length"":13,""URL"":""https://pubchem.ncbi.nlm.nih.gov/compound/Dipropylamine"",""Type"":""PubChemInternalLink"",""Extra"":""CID-8902"",Color/Form is Colorlessliquid,Odor is Ammoniaodor,Boiling_Point is 228.9°Fat760mmHg(NTP,1992),Melting_Point is -39.3°F(NTP,1992),Flash_Point is 45°F(USCG,1999),Solubility is Soluble(>=10mg/ml)(NTP,1992),Density is 0.738at68°F(USCG,1999)-Lessdensethanwater;willfloat"",""Markup"":[{""Start"":46,""Length"":5,""URL"":""https://pubchem.ncbi.nlm.nih.gov/compound/water"",""Type"":""PubChemInternalLink"",""Extra"":""CID-962"
2-hydroxybenzaldehyde,c1ccc(c(c1)C=O)O,-4.68,-8.809,"cid is 6115,compound_name is Aniline,cid_paras is 6115,Molecular_Weight is 93.13,XLogP3 is 0.9,Hydrogen_Bond_Donor_Count is 1,Hydrogen_Bond_Acceptor_Count is 1,Rotatable_Bond_Count is 0,Exact_Mass is 93.057849228,Monoisotopic_Mass is 93.057849228,Topological_Polar_Surface_Area is 26,""Unit"":""Å²"",Heavy_Atom_Count is 7,Formal_Charge is 0,Complexity is 46.1,Isotope_Atom_Count is 0,Defined_Atom_Stereocenter_Count is 0,Undefined_Atom_Stereocenter_Count is 0,Defined_Bond_Stereocenter_Count is 0,Undefined_Bond_Stereocenter_Count is 0,Covalently_Bonded_Unit_Count is 1,Compound_Is_Canonicalized is Yes,Physical_Description is Anilineappearsasayellowishtobrownishoilyliquidwithamustyfishyodor.Meltingpoint-6°C;boilingpoint184°C;flashpoint158°F.Denserthanwater(8.5lb/gal)andslightlysolubleinwater.Vaporsheavierthanair.Toxicbyskinabsorptionandinhalation.Producestoxicoxidesofnitrogenduringcombustion.Usedtomanufactureotherchemicals,especiallydyes,photographicchemicals,agriculturalchemicalsandothers."",""Markup"":[{""Start"":0,""Length"":7,""URL"":""https://pubchem.ncbi.nlm.nih.gov/compound/Aniline"",""Type"":""PubChemInternalLink"",""Extra"":""CID-6115"",Color/Form is Oilyliquid;colorlesswhenfreshlydistilled,darkensonexposuretoairandlight,Odor is Hedonictone;pungent,Boiling_Point is 363to367°Fat760mmHg(EPA,1998),Melting_Point is 21°F(EPA,1998),Flash_Point is 158°F(EPA,1998),Solubility is 10to50mg/mLat73°F(NTP,1992),Density is 1.022at68°F(EPA,1998)-Denserthanwater;willsink"",""Markup"":[{""Start"":41,""Length"":5,""URL"":""https://pubchem.ncbi.nlm.nih.gov/compound/water"",""Type"":""PubChemInternalLink"",""Extra"":""CID-962"
azetidine,C1CNC1,-5.56,-3.861,"cid is 6393,compound_name is Carbon tetrafluoride,cid_paras is 6393,Molecular_Weight is 88.004,XLogP3 is 1.8,Hydrogen_Bond_Donor_Count is 0,Hydrogen_Bond_Acceptor_Count is 4,Rotatable_Bond_Count is 0,Exact_Mass is 87.99361265,Monoisotopic_Mass is 87.99361265,Topological_Polar_Surface_Area is 0,""Unit"":""Å²"",Heavy_Atom_Count is 5,Formal_Charge is 0,Complexity is 19.1,Isotope_Atom_Count is 0,Defined_Atom_Stereocenter_Count is 0,Undefined_Atom_Stereocenter_Count is 0,Defined_Bond_Stereocenter_Count is 0,Undefined_Bond_Stereocenter_Count is 0,Covalently_Bonded_Unit_Count is 1,Compound_Is_Canonicalized is Yes,Physical_Description is Tetrafluoromethaneisacolorlessnonflammablegas.Itisshippedasaliquidunderpressure.Itmaybenarcoticathighconcentrations.Underprolongedexposuretofireorheatthecontainersmayruptureviolentlyandrocket.Itisusedasarefrigerant."",""Markup"":[{""Start"":0,""Length"":18,""URL"":""https://pubchem.ncbi.nlm.nih.gov/compound/Tetrafluoromethane"",""Type"":""PubChemInternalLink"",""Extra"":""CID-21218284,Color/Form is Colorlessgas,Odor is Odorless,Boiling_Point is -127.9°C,Melting_Point is -183.582°C,Solubility is Inwater,18.8mg/Lat25°C"",""Markup"":[{""Start"":3,""Length"":5,""URL"":""https://pubchem.ncbi.nlm.nih.gov/compound/water"",""Type"":""PubChemInternalLink"",""Extra"":""CID-962,Density is 3.034g/cucmat25°C"
N-propylpropan-1-amine,CCCNCCC,-3.65,-2.233,"cid is 637572,compound_name is (+)-2-Methyl-1-butanol,cid_paras is 637572,Molecular_Weight is 88.15,XLogP3 is 1.2,Hydrogen_Bond_Donor_Count is 1,Hydrogen_Bond_Acceptor_Count is 1,Rotatable_Bond_Count is 2,Exact_Mass is 88.088815002,Monoisotopic_Mass is 88.088815002,Topological_Polar_Surface_Area is 20.2,""Unit"":""Å²"",Heavy_Atom_Count is 6,Formal_Charge is 0,Complexity is 27.1,Isotope_Atom_Count is 0,Defined_Atom_Stereocenter_Count is 1,Undefined_Atom_Stereocenter_Count is 0,Defined_Bond_Stereocenter_Count is 0,Undefined_Bond_Stereocenter_Count is 0,Covalently_Bonded_Unit_Count is 1,Compound_Is_Canonicalized is Yes"
aniline,c1ccc(cc1)N,-5.49,-5.543,"cid is 10784,compound_name is 2-Iodophenol,cid_paras is 10784,Molecular_Weight is 220.01,XLogP3 is 2.6,Hydrogen_Bond_Donor_Count is 1,Hydrogen_Bond_Acceptor_Count is 1,Rotatable_Bond_Count is 0,Exact_Mass is 219.93851,Monoisotopic_Mass is 219.93851,Topological_Polar_Surface_Area is 20.2,""Unit"":""Å²"",Heavy_Atom_Count is 8,Formal_Charge is 0,Complexity is 74.9,Isotope_Atom_Count is 0,Defined_Atom_Stereocenter_Count is 0,Undefined_Atom_Stereocenter_Count is 0,Defined_Bond_Stereocenter_Count is 0,Undefined_Bond_Stereocenter_Count is 0,Covalently_Bonded_Unit_Count is 1,Compound_Is_Canonicalized is Yes,Physical_Description is Solid;[MerckIndex]Pinkoryellowcrystallinepowder;[AcrosOrganicsMSDS]"
tetrafluoromethane,C(F)(F)(F)F,3.12,2.489,"cid is 7041,compound_name is 2,6-Dimethoxyphenol,cid_paras is 7041,Molecular_Weight is 154.16,XLogP3 is 1.1,Hydrogen_Bond_Donor_Count is 1,Hydrogen_Bond_Acceptor_Count is 3,Rotatable_Bond_Count is 2,Exact_Mass is 154.062994177,Monoisotopic_Mass is 154.062994177,Topological_Polar_Surface_Area is 38.7,""Unit"":""Å²"",Heavy_Atom_Count is 11,Formal_Charge is 0,Complexity is 104,Isotope_Atom_Count is 0,Defined_Atom_Stereocenter_Count is 0,Undefined_Atom_Stereocenter_Count is 0,Defined_Bond_Stereocenter_Count is 0,Undefined_Bond_Stereocenter_Count is 0,Covalently_Bonded_Unit_Count is 1,Compound_Is_Canonicalized is Yes,Physical_Description is Lightbrownsolidifiedmassorfragments;[AldrichMSDS],Boiling_Point is 260.00to261.00°C.@760.00mmHg,Melting_Point is 55-56°C,Solubility is 17.2mg/mLat13°C"