iupac,smiles,expt,calc,Description
"1,2,4,5-tetrachloro-3-(3,4-dichlorophenyl)benzene",c1cc(c(cc1c2c(c(cc(c2Cl)Cl)Cl)Cl)Cl)Cl,-4.38,-0.705,"cid is 995,compound_name is Phenanthrene,cid_paras is 995,Molecular_Weight is 178.23,XLogP3 is 4.5,Hydrogen_Bond_Donor_Count is 0,Hydrogen_Bond_Acceptor_Count is 0,Rotatable_Bond_Count is 0,Exact_Mass is 178.078250319,Monoisotopic_Mass is 178.078250319,Topological_Polar_Surface_Area is 0,""Unit"":""Å²"",Heavy_Atom_Count is 14,Formal_Charge is 0,Complexity is 174,Isotope_Atom_Count is 0,Defined_Atom_Stereocenter_Count is 0,Undefined_Atom_Stereocenter_Count is 0,Defined_Bond_Stereocenter_Count is 0,Undefined_Bond_Stereocenter_Count is 0,Covalently_Bonded_Unit_Count is 1,Compound_Is_Canonicalized is Yes,Physical_Description is Phenanthreneappearsascolorlessmonocliniccrystalswithafaintaromaticodor.Solutionsexhibitabluefluorescence.(NTP,1992)"",""Markup"":[{""Start"":0,""Length"":12,""URL"":""https://pubchem.ncbi.nlm.nih.gov/compound/Phenanthrene"",""Type"":""PubChemInternalLink"",""Extra"":""CID-995,Color/Form is Monoclinicplatesfromalcohol,Odor is Faintaromaticodor,Boiling_Point is 642°Fat760mmHg(NTP,1992),Melting_Point is 212°F(NTP,1992),Flash_Point is 340°F(NTP,1992),Solubility is lessthan1mg/mLat79°F(NTP,1992),Density is 1.025(NTP,1992)-Denserthanwater;willsink"",""Markup"":[{""Start"":32,""Length"":5,""URL"":""https://pubchem.ncbi.nlm.nih.gov/compound/water"",""Type"":""PubChemInternalLink"",""Extra"":""CID-962"
propylbenzene,CCCc1ccccc1,-0.53,-0.511,"cid is 6328,compound_name is Iodomethane,cid_paras is 6328,Molecular_Weight is 141.939,XLogP3 is 1.5,Hydrogen_Bond_Donor_Count is 0,Hydrogen_Bond_Acceptor_Count is 0,Rotatable_Bond_Count is 0,Exact_Mass is 141.92795,Monoisotopic_Mass is 141.92795,Topological_Polar_Surface_Area is 0,""Unit"":""Å²"",Heavy_Atom_Count is 2,Formal_Charge is 0,Complexity is 2,Isotope_Atom_Count is 0,Defined_Atom_Stereocenter_Count is 0,Undefined_Atom_Stereocenter_Count is 0,Defined_Bond_Stereocenter_Count is 0,Undefined_Bond_Stereocenter_Count is 0,Covalently_Bonded_Unit_Count is 1,Compound_Is_Canonicalized is Yes,Physical_Description is Methyliodideappearsasacolorlessliquidthatturnsbrownonexposuretolight.Denserthanwater.Contactmayirritateskin,eyesandmucousmembranes.Verytoxicbyingestion,inhalationandskinabsorption."",""Markup"":[{""Start"":0,""Length"":13,""URL"":""https://pubchem.ncbi.nlm.nih.gov/compound/Methyl%20iodide"",""Type"":""PubChemInternalLink"",""Extra"":""CID-6328"",Color/Form is Colorless,transparentliquid(turnsbrownonexposuretolight),Odor is Pungent,ether-likeodor.,Boiling_Point is 108.3°Fat760mmHg(NTP,1992),Melting_Point is -87.6°F(NTP,1992),Solubility is 10to50mg/mLat64°F(NTP,1992),Density is 2.279at68°F(USCG,1999)-Denserthanwater;willsink"",""Markup"":[{""Start"":42,""Length"":5,""URL"":""https://pubchem.ncbi.nlm.nih.gov/compound/water"",""Type"":""PubChemInternalLink"",""Extra"":""CID-962"
caffeine,Cn1cnc2c1c(=O)n(c(=O)n2C)C,-12.64,-17.621,"cid is 93462,compound_name is 3,5-Dichloro-2,6-dimethoxyphenol,cid_paras is 93462,Molecular_Weight is 223.05,XLogP3 is 3.1,Hydrogen_Bond_Donor_Count is 1,Hydrogen_Bond_Acceptor_Count is 3,Rotatable_Bond_Count is 2,Exact_Mass is 221.9850495,Monoisotopic_Mass is 221.9850495,Topological_Polar_Surface_Area is 38.7,""Unit"":""Å²"",Heavy_Atom_Count is 13,Formal_Charge is 0,Complexity is 152,Isotope_Atom_Count is 0,Defined_Atom_Stereocenter_Count is 0,Undefined_Atom_Stereocenter_Count is 0,Defined_Bond_Stereocenter_Count is 0,Undefined_Bond_Stereocenter_Count is 0,Covalently_Bonded_Unit_Count is 1,Compound_Is_Canonicalized is Yes"
N-methylmethanamine,CNC,-4.29,-2.991,"cid is 8003,compound_name is Pentane,cid_paras is 8003,Molecular_Weight is 72.15,XLogP3 is 3.4,Hydrogen_Bond_Donor_Count is 0,Hydrogen_Bond_Acceptor_Count is 0,Rotatable_Bond_Count is 2,Exact_Mass is 72.093900383,Monoisotopic_Mass is 72.093900383,Topological_Polar_Surface_Area is 0,""Unit"":""Å²"",Heavy_Atom_Count is 5,Formal_Charge is 0,Complexity is 7.5,Isotope_Atom_Count is 0,Defined_Atom_Stereocenter_Count is 0,Undefined_Atom_Stereocenter_Count is 0,Defined_Bond_Stereocenter_Count is 0,Undefined_Bond_Stereocenter_Count is 0,Covalently_Bonded_Unit_Count is 1,Compound_Is_Canonicalized is Yes,Physical_Description is N-pentaneappearsasaclearcolorlessliquidwithapetroleum-likeodor.Flashpoint57°F.Boilingpoint97°F.Lessdensethanwaterandinsolubleinwater.Hencefloatsonwater.Vaporsareheavierthanair."",""Markup"":[{""Start"":0,""Length"":9,""URL"":""https://pubchem.ncbi.nlm.nih.gov/compound/N-pentane"",""Type"":""PubChemInternalLink"",""Extra"":""CID-8003"",Color/Form is Colorlessliquid[Note:Agasabove97degreesF.Maybeutilizedasafuel].,Odor is Pleasant,Boiling_Point is 97°Fat760mmHg(NTP,1992),Melting_Point is -202°F(NTP,1992),Flash_Point is -57°F(NTP,1992),Solubility is lessthan1mg/mLat70°F(NTP,1992),Density is 0.626at68°F(USCG,1999)-Lessdensethanwater;willfloat"",""Markup"":[{""Start"":46,""Length"":5,""URL"":""https://pubchem.ncbi.nlm.nih.gov/compound/water"",""Type"":""PubChemInternalLink"",""Extra"":""CID-962"
"1,1,2,3,3,3-hexafluoroprop-1-ene",C(=C(F)F)(C(F)(F)F)F,2.93,2.305,"cid is 76961009,compound_name is (2R)-2-bromo-1,1,1,2-tetrafluoroethane,cid_paras is 76961009,Molecular_Weight is 180.93,XLogP3 is 2.6,Hydrogen_Bond_Donor_Count is 0,Hydrogen_Bond_Acceptor_Count is 4,Rotatable_Bond_Count is 0,Exact_Mass is 179.91978,Monoisotopic_Mass is 179.91978,Topological_Polar_Surface_Area is 0,""Unit"":""Å²"",Heavy_Atom_Count is 7,Formal_Charge is 0,Complexity is 57.2,Isotope_Atom_Count is 0,Defined_Atom_Stereocenter_Count is 1,Undefined_Atom_Stereocenter_Count is 0,Defined_Bond_Stereocenter_Count is 0,Undefined_Bond_Stereocenter_Count is 0,Covalently_Bonded_Unit_Count is 1,Compound_Is_Canonicalized is Yes"
4-chlorophenol,c1cc(ccc1O)Cl,-7.03,-5.373,"cid is 34591,compound_name is 2-Isobutylpyrazine,cid_paras is 34591,Molecular_Weight is 136.19,XLogP3 is 1.5,Hydrogen_Bond_Donor_Count is 0,Hydrogen_Bond_Acceptor_Count is 2,Rotatable_Bond_Count is 2,Exact_Mass is 136.100048391,Monoisotopic_Mass is 136.100048391,Topological_Polar_Surface_Area is 25.8,""Unit"":""Å²"",Heavy_Atom_Count is 10,Formal_Charge is 0,Complexity is 91.3,Isotope_Atom_Count is 0,Defined_Atom_Stereocenter_Count is 0,Undefined_Atom_Stereocenter_Count is 0,Defined_Bond_Stereocenter_Count is 0,Undefined_Bond_Stereocenter_Count is 0,Covalently_Bonded_Unit_Count is 1,Compound_Is_Canonicalized is Yes"
piperidine,C1CCNCC1,-5.11,-3.873,"cid is 92272508,compound_name is CID 92272508,cid_paras is 92272508,Molecular_Weight is 119.12,XLogP3 is 1.8,Hydrogen_Bond_Donor_Count is 0,Hydrogen_Bond_Acceptor_Count is 3,Rotatable_Bond_Count is 2,Exact_Mass is 119.058243149,Monoisotopic_Mass is 119.058243149,Topological_Polar_Surface_Area is 55,""Unit"":""A^2"",Heavy_Atom_Count is 8,Formal_Charge is 0,Complexity is 77.8,Isotope_Atom_Count is 0,Defined_Atom_Stereocenter_Count is 1,Undefined_Atom_Stereocenter_Count is 0,Defined_Bond_Stereocenter_Count is 0,Undefined_Bond_Stereocenter_Count is 0,Covalently_Bonded_Unit_Count is 1,Compound_Is_Canonicalized is Yes"
phenanthrene,c1ccc2c(c1)ccc3c2cccc3,-3.88,-5.264,"cid is 36980,compound_name is 2,5-Dichlorobiphenyl,cid_paras is 36980,Molecular_Weight is 223.09,XLogP3 is 5.2,Hydrogen_Bond_Donor_Count is 0,Hydrogen_Bond_Acceptor_Count is 0,Rotatable_Bond_Count is 1,Exact_Mass is 222.0003056,Monoisotopic_Mass is 222.0003056,Topological_Polar_Surface_Area is 0,""Unit"":""Å²"",Heavy_Atom_Count is 14,Formal_Charge is 0,Complexity is 175,Isotope_Atom_Count is 0,Defined_Atom_Stereocenter_Count is 0,Undefined_Atom_Stereocenter_Count is 0,Defined_Bond_Stereocenter_Count is 0,Undefined_Bond_Stereocenter_Count is 0,Covalently_Bonded_Unit_Count is 1,Compound_Is_Canonicalized is Yes"
iodomethane,CI,-0.89,-0.641,"cid is 36401,compound_name is 2,3,4,5-Tetrachlorobiphenyl,cid_paras is 36401,Molecular_Weight is 292.0,XLogP3 is 6.4,Hydrogen_Bond_Donor_Count is 0,Hydrogen_Bond_Acceptor_Count is 0,Rotatable_Bond_Count is 1,Exact_Mass is 291.919411,Monoisotopic_Mass is 289.922361,Topological_Polar_Surface_Area is 0,""Unit"":""Å²"",Heavy_Atom_Count is 16,Formal_Charge is 0,Complexity is 227,Isotope_Atom_Count is 0,Defined_Atom_Stereocenter_Count is 0,Undefined_Atom_Stereocenter_Count is 0,Defined_Bond_Stereocenter_Count is 0,Undefined_Bond_Stereocenter_Count is 0,Covalently_Bonded_Unit_Count is 1,Compound_Is_Canonicalized is Yes"
"3,5-dichloro-2,6-dimethoxyphenol",COc1c(cc(c(c1O)OC)Cl)Cl,-6.44,-5.98,"cid is 638047,compound_name is (r)-(+)-2,3-Dimethylpentane,cid_paras is 638047,Molecular_Weight is 100.20,XLogP3 is 3.4,Hydrogen_Bond_Donor_Count is 0,Hydrogen_Bond_Acceptor_Count is 0,Rotatable_Bond_Count is 2,Exact_Mass is 100.125200510,Monoisotopic_Mass is 100.125200510,Topological_Polar_Surface_Area is 0,""Unit"":""Å²"",Heavy_Atom_Count is 7,Formal_Charge is 0,Complexity is 37.3,Isotope_Atom_Count is 0,Defined_Atom_Stereocenter_Count is 1,Undefined_Atom_Stereocenter_Count is 0,Defined_Bond_Stereocenter_Count is 0,Undefined_Bond_Stereocenter_Count is 0,Covalently_Bonded_Unit_Count is 1,Compound_Is_Canonicalized is Yes"
"(E)-1,2-dichloroethylene",C(=C/Cl)\Cl,-0.78,1.024,"cid is 10326,compound_name is Indan,cid_paras is 10326,Molecular_Weight is 118.18,XLogP3 is 3.2,Hydrogen_Bond_Donor_Count is 0,Hydrogen_Bond_Acceptor_Count is 0,Rotatable_Bond_Count is 0,Exact_Mass is 118.078250319,Monoisotopic_Mass is 118.078250319,Topological_Polar_Surface_Area is 0,""Unit"":""Å²"",Heavy_Atom_Count is 9,Formal_Charge is 0,Complexity is 84.2,Isotope_Atom_Count is 0,Defined_Atom_Stereocenter_Count is 0,Undefined_Atom_Stereocenter_Count is 0,Defined_Bond_Stereocenter_Count is 0,Undefined_Bond_Stereocenter_Count is 0,Covalently_Bonded_Unit_Count is 1,Compound_Is_Canonicalized is Yes,Physical_Description is Liquid;[MerckIndex]Clearlightyellowliquid;[Sigma-AldrichMSDS]"
n-pentane,CCCCC,2.3,2.673,"cid is 8894,compound_name is Tetrahydropyran,cid_paras is 8894,Molecular_Weight is 86.13,XLogP3 is 0.9,Hydrogen_Bond_Donor_Count is 0,Hydrogen_Bond_Acceptor_Count is 1,Rotatable_Bond_Count is 0,Exact_Mass is 86.073164938,Monoisotopic_Mass is 86.073164938,Topological_Polar_Surface_Area is 9.2,""Unit"":""Å²"",Heavy_Atom_Count is 6,Formal_Charge is 0,Complexity is 30.9,Isotope_Atom_Count is 0,Defined_Atom_Stereocenter_Count is 0,Undefined_Atom_Stereocenter_Count is 0,Defined_Bond_Stereocenter_Count is 0,Undefined_Bond_Stereocenter_Count is 0,Covalently_Bonded_Unit_Count is 1,Compound_Is_Canonicalized is Yes,Physical_Description is Colorlessliquidwithapungentsweetodorlikeether;[HSDB],Color/Form is COLORLESS,MOBILELIQUID,Odor is PUNGENT,SWEETISHODOR,Boiling_Point is 88,""Unit"":""°C"",Melting_Point is -45,""Unit"":""°C"",Flash_Point is -4.0°F(-20°C)CC,Solubility is 80200,""Unit"":""mg/L(at25°C)"",Density is 0.8814@20°C/4°C"
butanenitrile,CCCC#N,-3.64,-2.287,"cid is 10326,compound_name is Indan,cid_paras is 10326,Molecular_Weight is 118.18,XLogP3 is 3.2,Hydrogen_Bond_Donor_Count is 0,Hydrogen_Bond_Acceptor_Count is 0,Rotatable_Bond_Count is 0,Exact_Mass is 118.078250319,Monoisotopic_Mass is 118.078250319,Topological_Polar_Surface_Area is 0,""Unit"":""Å²"",Heavy_Atom_Count is 9,Formal_Charge is 0,Complexity is 84.2,Isotope_Atom_Count is 0,Defined_Atom_Stereocenter_Count is 0,Undefined_Atom_Stereocenter_Count is 0,Defined_Bond_Stereocenter_Count is 0,Undefined_Bond_Stereocenter_Count is 0,Covalently_Bonded_Unit_Count is 1,Compound_Is_Canonicalized is Yes,Physical_Description is Liquid;[MerckIndex]Clearlightyellowliquid;[Sigma-AldrichMSDS]"
"2-bromo-1,1,1,2-tetrafluoro-ethane",[C@@H](C(F)(F)F)(F)Br,0.5,0.234,"cid is 38306,compound_name is 2,3,3',4,4',5,5'-Heptachlorobiphenyl,cid_paras is 38306,Molecular_Weight is 395.3,XLogP3 is 8.1,Hydrogen_Bond_Donor_Count is 0,Hydrogen_Bond_Acceptor_Count is 0,Rotatable_Bond_Count is 1,Exact_Mass is 393.802494,Monoisotopic_Mass is 391.805444,Topological_Polar_Surface_Area is 0,""Unit"":""Å²"",Heavy_Atom_Count is 19,Formal_Charge is 0,Complexity is 301,Isotope_Atom_Count is 0,Defined_Atom_Stereocenter_Count is 0,Undefined_Atom_Stereocenter_Count is 0,Defined_Bond_Stereocenter_Count is 0,Undefined_Bond_Stereocenter_Count is 0,Covalently_Bonded_Unit_Count is 1,Compound_Is_Canonicalized is Yes"
2-isobutylpyrazine,CC(C)Cc1cnccn1,-5.04,-5.495,"cid is 6366,compound_name is Vinylidene chloride,cid_paras is 6366,Molecular_Weight is 96.94,XLogP3 is 2.3,Hydrogen_Bond_Donor_Count is 0,Hydrogen_Bond_Acceptor_Count is 0,Rotatable_Bond_Count is 0,Exact_Mass is 95.9533555,Monoisotopic_Mass is 95.9533555,Topological_Polar_Surface_Area is 0,""Unit"":""Å²"",Heavy_Atom_Count is 4,Formal_Charge is 0,Complexity is 27,Isotope_Atom_Count is 0,Defined_Atom_Stereocenter_Count is 0,Undefined_Atom_Stereocenter_Count is 0,Defined_Bond_Stereocenter_Count is 0,Undefined_Bond_Stereocenter_Count is 0,Covalently_Bonded_Unit_Count is 1,Compound_Is_Canonicalized is Yes,Physical_Description is Vinylidenechloride,stabilizedappearsasaclearcolorlessliquidwithachloroform-likeodor.Flashpoint0°F.Boilingpoint99°F.Denser(at10.1lb/gal)thanwaterandinsolubleinwater.Hencesinksinwater.Maypolymerizeexothermicallyifheatedorcontaminated.Ifthepolymerizationtakesplaceinsideacontainer,thecontainermayruptureviolently.Vaporsheavierthanair."",""Markup"":[{""Start"":0,""Length"":19,""URL"":""https://pubchem.ncbi.nlm.nih.gov/compound/Vinylidene%20chloride"",""Type"":""PubChemInternalLink"",""Extra"":""CID-6366"",Color/Form is Colorlessliquid,Odor is Mild,sweetodorresemblingthatofchloroform"",""Markup"":[{""Start"":36,""Length"":10,""URL"":""https://pubchem.ncbi.nlm.nih.gov/compound/chloroform"",""Type"":""PubChemInternalLink"",""Extra"":""CID-6212,Boiling_Point is 89.1°Fat760mmHg(NTP,1992),Melting_Point is -188.5°F(NTP,1992),Flash_Point is 14°F(NTP,1992),Solubility is 5to10mg/mLat70°F(NTP,1992),Density is 1.21at68°F(USCG,1999)-Denserthanwater;willsink"",""Markup"":[{""Start"":41,""Length"":5,""URL"":""https://pubchem.ncbi.nlm.nih.gov/compound/water"",""Type"":""PubChemInternalLink"",""Extra"":""CID-962"
[(2S)-butan-2-yl] nitrate,CC[C@H](C)O[N+](=O)[O-],-1.82,-1.864,"cid is 6560,compound_name is Isobutanol,cid_paras is 6560,Molecular_Weight is 74.12,XLogP3 is 0.8,Hydrogen_Bond_Donor_Count is 1,Hydrogen_Bond_Acceptor_Count is 1,Rotatable_Bond_Count is 1,Exact_Mass is 74.073164938,Monoisotopic_Mass is 74.073164938,Topological_Polar_Surface_Area is 20.2,""Unit"":""Å²"",Heavy_Atom_Count is 5,Formal_Charge is 0,Complexity is 17.6,Isotope_Atom_Count is 0,Defined_Atom_Stereocenter_Count is 0,Undefined_Atom_Stereocenter_Count is 0,Defined_Bond_Stereocenter_Count is 0,Undefined_Bond_Stereocenter_Count is 0,Covalently_Bonded_Unit_Count is 1,Compound_Is_Canonicalized is Yes,Physical_Description is Isobutanolappearsasaclearcolorlessliquidwithasweetodor.Flashpoint85-100°F.Lessdensethanwater.Vaporsheavierthanair."",""Markup"":[{""Start"":0,""Length"":10,""URL"":""https://pubchem.ncbi.nlm.nih.gov/compound/Isobutanol"",""Type"":""PubChemInternalLink"",""Extra"":""CID-6560"",Color/Form is Colorless,oilyliquid,Odor is Sweet,mustyodor,Boiling_Point is 225°Fat760mmHg(NTP,1992),Melting_Point is -162°F(NTP,1992),Flash_Point is 82°F(NTP,1992),Solubility is 50to100mg/mLat61°F(NTP,1992),Density is 0.802at68°F(USCG,1999)-Lessdensethanwater;willfloat"",""Markup"":[{""Start"":46,""Length"":5,""URL"":""https://pubchem.ncbi.nlm.nih.gov/compound/water"",""Type"":""PubChemInternalLink"",""Extra"":""CID-962"
"1,4-dichloro-2-phenyl-benzene",c1ccc(cc1)c2cc(ccc2Cl)Cl,-2.46,-1.903,"cid is 7803,compound_name is Propyl propionate,cid_paras is 7803,Molecular_Weight is 116.16,XLogP3 is 1.7,Hydrogen_Bond_Donor_Count is 0,Hydrogen_Bond_Acceptor_Count is 2,Rotatable_Bond_Count is 4,Exact_Mass is 116.083729621,Monoisotopic_Mass is 116.083729621,Topological_Polar_Surface_Area is 26.3,""Unit"":""Å²"",Heavy_Atom_Count is 8,Formal_Charge is 0,Complexity is 68.9,Isotope_Atom_Count is 0,Defined_Atom_Stereocenter_Count is 0,Undefined_Atom_Stereocenter_Count is 0,Defined_Bond_Stereocenter_Count is 0,Undefined_Bond_Stereocenter_Count is 0,Covalently_Bonded_Unit_Count is 1,Compound_Is_Canonicalized is Yes,Physical_Description is Liquid,Boiling_Point is 122.00to124.00°C.@760.00mmHg,Melting_Point is -75.9°C,Solubility is 5.3mg/mLat25°C,Density is 0.873-0.879"
"1,2,3,4-tetrachloro-5-phenyl-benzene",c1ccc(cc1)c2cc(c(c(c2Cl)Cl)Cl)Cl,-3.48,-1.31,"cid is 6214,compound_name is Hexachloroethane,cid_paras is 6214,Molecular_Weight is 236.7,XLogP3 is 4.1,Hydrogen_Bond_Donor_Count is 0,Hydrogen_Bond_Acceptor_Count is 0,Rotatable_Bond_Count is 0,Exact_Mass is 235.810166,Monoisotopic_Mass is 233.813116,Topological_Polar_Surface_Area is 0,""Unit"":""Å²"",Heavy_Atom_Count is 8,Formal_Charge is 0,Complexity is 61.5,Isotope_Atom_Count is 0,Defined_Atom_Stereocenter_Count is 0,Undefined_Atom_Stereocenter_Count is 0,Defined_Bond_Stereocenter_Count is 0,Undefined_Bond_Stereocenter_Count is 0,Covalently_Bonded_Unit_Count is 1,Compound_Is_Canonicalized is Yes,Physical_Description is Hexachloroethaneisacolorless,crystallinesolidwithacamphor-likeodor.Itmaycauseillnessfrominhalationoringestionandmayirritateskin,eyesandmucousmembranes.Whenheatedtohightemperaturesitmayemittoxicfumes.Theprimaryhazardisthethreattotheenvironment.Immediatestepsshouldbetakentolimititsspreadtotheenvironment.Itisusedtomakeotherchemicals."",""Markup"":[{""Start"":0,""Length"":16,""URL"":""https://pubchem.ncbi.nlm.nih.gov/compound/Hexachloroethane"",""Type"":""PubChemInternalLink"",""Extra"":""CID-6214"",Color/Form is Colorlesscrystals,Odor is Camphor-likeodor,Boiling_Point is 368.2°Fat760mmHg(Sublimes)(NTP,1992),Melting_Point is Sublimes(NTP,1992),Solubility is lessthan1mg/mLat70°F(NTP,1992),Density is 2.091at68°F(USCG,1999)-Denserthanwater;willsink"",""Markup"":[{""Start"":42,""Length"":5,""URL"":""https://pubchem.ncbi.nlm.nih.gov/compound/water"",""Type"":""PubChemInternalLink"",""Extra"":""CID-962"
"2,3-dimethylpentane",CC[C@@H](C)C(C)C,2.52,2.625,"cid is 7520,compound_name is Thioanisole,cid_paras is 7520,Molecular_Weight is 124.21,XLogP3 is 2.7,Hydrogen_Bond_Donor_Count is 0,Hydrogen_Bond_Acceptor_Count is 1,Rotatable_Bond_Count is 1,Exact_Mass is 124.03467143,Monoisotopic_Mass is 124.03467143,Topological_Polar_Surface_Area is 25.3,""Unit"":""Å²"",Heavy_Atom_Count is 8,Formal_Charge is 0,Complexity is 55.4,Isotope_Atom_Count is 0,Defined_Atom_Stereocenter_Count is 0,Undefined_Atom_Stereocenter_Count is 0,Defined_Bond_Stereocenter_Count is 0,Undefined_Bond_Stereocenter_Count is 0,Covalently_Bonded_Unit_Count is 1,Compound_Is_Canonicalized is Yes,Physical_Description is Colorlessliquidwithastench;[AlfaAesarMSDS],Boiling_Point is 188.00to193.00°C.@760.00mmHg,Melting_Point is -15°C,Solubility is 0.506mg/mLat25°C,Density is 0.958-0.968"