iupac,smiles,expt,calc,Description
isopropenylbenzene,CC(=C)c1ccccc1,-1.24,-0.651,"cid is 54289557,compound_name is (S)-1-butyloxy-2-hydroxypropane,cid_paras is 54289557,Molecular_Weight is 132.20,XLogP3 is 1.1,Hydrogen_Bond_Donor_Count is 1,Hydrogen_Bond_Acceptor_Count is 2,Rotatable_Bond_Count is 5,Exact_Mass is 132.115029749,Monoisotopic_Mass is 132.115029749,Topological_Polar_Surface_Area is 29.5,""Unit"":""Å²"",Heavy_Atom_Count is 9,Formal_Charge is 0,Complexity is 54.9,Isotope_Atom_Count is 0,Defined_Atom_Stereocenter_Count is 1,Undefined_Atom_Stereocenter_Count is 0,Defined_Bond_Stereocenter_Count is 0,Undefined_Bond_Stereocenter_Count is 0,Covalently_Bonded_Unit_Count is 1,Compound_Is_Canonicalized is Yes"
isopentane,CCC(C)C,2.38,2.59,"cid is 1031,compound_name is 1-Propanol,cid_paras is 1031,Molecular_Weight is 60.10,XLogP3 is 0.3,Hydrogen_Bond_Donor_Count is 1,Hydrogen_Bond_Acceptor_Count is 1,Rotatable_Bond_Count is 1,Exact_Mass is 60.057514874,Monoisotopic_Mass is 60.057514874,Topological_Polar_Surface_Area is 20.2,""Unit"":""Å²"",Heavy_Atom_Count is 4,Formal_Charge is 0,Complexity is 7.2,Isotope_Atom_Count is 0,Defined_Atom_Stereocenter_Count is 0,Undefined_Atom_Stereocenter_Count is 0,Defined_Bond_Stereocenter_Count is 0,Undefined_Bond_Stereocenter_Count is 0,Covalently_Bonded_Unit_Count is 1,Compound_Is_Canonicalized is Yes,Physical_Description is N-propanolappearsasaclearcolorlessliquidwithasharpmustyodorlikerubbingalcohol.Flashpoint53-77°F.Autoignitesat700°F.Vaporsareheavierthanairandmildlyirritatetheeyes,nose,andthroat.Densityapproximately6.5lb/gal.Usedinmakingcosmetics,skinandhairpreparations,pharmaceuticals,perfumes,lacquerformulations,dyesolutions,antifreezes,rubbingalcohols,soaps,windowcleaners,acetoneandotherchemicalsandproducts."",""Markup"":[{""Start"":0,""Length"":10,""URL"":""https://pubchem.ncbi.nlm.nih.gov/compound/N-propanol"",""Type"":""PubChemInternalLink"",""Extra"":""CID-1031"",Color/Form is Colorlessliquid.,Odor is Similartoethanol,Boiling_Point is 207°Fat760mmHg(USCG,1999),Melting_Point is -195.2°F(USCG,1999),Flash_Point is 77°F(USCG,1999),Solubility is Miscible(NIOSH,2024),Density is 0.803at68°F(USCG,1999)-Lessdensethanwater;willfloat"",""Markup"":[{""Start"":46,""Length"":5,""URL"":""https://pubchem.ncbi.nlm.nih.gov/compound/water"",""Type"":""PubChemInternalLink"",""Extra"":""CID-962"
butyl nitrate,CCCCO[N+](=O)[O-],-2.09,-1.938,"cid is 7237,compound_name is O-Xylene,cid_paras is 7237,Molecular_Weight is 106.16,XLogP3 is 3.1,Hydrogen_Bond_Donor_Count is 0,Hydrogen_Bond_Acceptor_Count is 0,Rotatable_Bond_Count is 0,Exact_Mass is 106.078250319,Monoisotopic_Mass is 106.078250319,Topological_Polar_Surface_Area is 0,""Unit"":""Å²"",Heavy_Atom_Count is 8,Formal_Charge is 0,Complexity is 56.4,Isotope_Atom_Count is 0,Defined_Atom_Stereocenter_Count is 0,Undefined_Atom_Stereocenter_Count is 0,Defined_Bond_Stereocenter_Count is 0,Undefined_Bond_Stereocenter_Count is 0,Covalently_Bonded_Unit_Count is 1,Compound_Is_Canonicalized is Yes,Physical_Description is O-xyleneappearsasacolorlesswateryliquidwithasweetodor.Lessdensethanwater.Insolubleinwater.Irritatingvapor.(USCG,1999)"",""Markup"":[{""Start"":0,""Length"":8,""URL"":""https://pubchem.ncbi.nlm.nih.gov/compound/O-xylene"",""Type"":""PubChemInternalLink"",""Extra"":""CID-7237"",Color/Form is Colorlessliquid,Odor is Sweet,Boiling_Point is 289to293°Fat760mmHg(NTP,1992),Melting_Point is -13to-9°F(NTP,1992),Flash_Point is 63°F(NTP,1992),Solubility is Insoluble(NTP,1992),Density is 0.88at68°F(USCG,1999)-Lessdensethanwater;willfloat"",""Markup"":[{""Start"":45,""Length"":5,""URL"":""https://pubchem.ncbi.nlm.nih.gov/compound/water"",""Type"":""PubChemInternalLink"",""Extra"":""CID-962"
bromobenzene,c1ccc(cc1)Br,-1.46,-0.947,"cid is 10041,compound_name is Neopentane,cid_paras is 10041,Molecular_Weight is 72.15,XLogP3 is 2.5,Hydrogen_Bond_Donor_Count is 0,Hydrogen_Bond_Acceptor_Count is 0,Rotatable_Bond_Count is 0,Exact_Mass is 72.093900383,Monoisotopic_Mass is 72.093900383,Topological_Polar_Surface_Area is 0,""Unit"":""Å²"",Heavy_Atom_Count is 5,Formal_Charge is 0,Complexity is 15.5,Isotope_Atom_Count is 0,Defined_Atom_Stereocenter_Count is 0,Undefined_Atom_Stereocenter_Count is 0,Defined_Bond_Stereocenter_Count is 0,Undefined_Bond_Stereocenter_Count is 0,Covalently_Bonded_Unit_Count is 1,Compound_Is_Canonicalized is Yes,Physical_Description is Mayliquefyincoolorcoldweather.Lessdensethanwater.Insolubleinwaterbutsolubleinalcohol.Underprolongedexposuretofireorheat,thecontainersmayruptureviolentlyandrocket."",""Markup"":[{""Start"":53,""Length"":5,""URL"":""https://pubchem.ncbi.nlm.nih.gov/compound/water"",""Type"":""PubChemInternalLink"",""Extra"":""CID-962"",Color/Form is Colorlessgasorveryvolatileliquid,Odor is Gasoline-likeodor,Boiling_Point is 9.5°C,Melting_Point is -16.37°C,Flash_Point is lessthan19.4°F,Solubility is Inwater,33.2mg/Lat25°C"",""Markup"":[{""Start"":3,""Length"":5,""URL"":""https://pubchem.ncbi.nlm.nih.gov/compound/water"",""Type"":""PubChemInternalLink"",""Extra"":""CID-962,Density is 0.591at20°C/4°C"
"1,1,1-trichloroethane",CC(Cl)(Cl)Cl,-0.19,0.505,"cid is 6809,compound_name is Phthalimide,cid_paras is 6809,Molecular_Weight is 147.13,XLogP3 is 1.1,Hydrogen_Bond_Donor_Count is 1,Hydrogen_Bond_Acceptor_Count is 2,Rotatable_Bond_Count is 0,Exact_Mass is 147.032028402,Monoisotopic_Mass is 147.032028402,Topological_Polar_Surface_Area is 46.2,""Unit"":""Å²"",Heavy_Atom_Count is 11,Formal_Charge is 0,Complexity is 190,Isotope_Atom_Count is 0,Defined_Atom_Stereocenter_Count is 0,Undefined_Atom_Stereocenter_Count is 0,Defined_Bond_Stereocenter_Count is 0,Undefined_Bond_Stereocenter_Count is 0,Covalently_Bonded_Unit_Count is 1,Compound_Is_Canonicalized is Yes,Physical_Description is Phthalimideisawhitetolighttanpowder.Slightlyacidic.(NTP,1992)"",""Markup"":[{""Start"":0,""Length"":11,""URL"":""https://pubchem.ncbi.nlm.nih.gov/compound/Phthalimide"",""Type"":""PubChemInternalLink"",""Extra"":""CID-6809,Color/Form is MONOCLINICPRISMSFROMWATERORBYSUBLIMATION"",""Markup"":[{""Start"":23,""Length"":5,""URL"":""https://pubchem.ncbi.nlm.nih.gov/compound/WATER"",""Type"":""PubChemInternalLink"",""Extra"":""CID-962,Boiling_Point is Sublimes(NTP,1992),Melting_Point is 460°F(NTP,1992),Solubility is lessthan1mg/mLat67.1°F(NTP,1992)"
4-(1-Methylethenyl)-1-cyclohexene-1-carboxaldehyde,CC(=C)[C@H]1CCC(=CC1)C=O,-4.09,-3.591,"cid is 10962,compound_name is 1-Iodobutane,cid_paras is 10962,Molecular_Weight is 184.02,XLogP3 is 3.1,Hydrogen_Bond_Donor_Count is 0,Hydrogen_Bond_Acceptor_Count is 0,Rotatable_Bond_Count is 2,Exact_Mass is 183.97490,Monoisotopic_Mass is 183.97490,Topological_Polar_Surface_Area is 0,""Unit"":""Å²"",Heavy_Atom_Count is 5,Formal_Charge is 0,Complexity is 13.1,Isotope_Atom_Count is 0,Defined_Atom_Stereocenter_Count is 0,Undefined_Atom_Stereocenter_Count is 0,Defined_Bond_Stereocenter_Count is 0,Undefined_Bond_Stereocenter_Count is 0,Covalently_Bonded_Unit_Count is 1,Compound_Is_Canonicalized is Yes,Physical_Description is Liquid;[MerckIndex]Colorlessliquid;[AlfaAesarMSDS]"
1-methyl-2-nitro-benzene,Cc1ccccc1[N+](=O)[O-],-3.58,-3.133,"cid is 2879,compound_name is P-Cresol,cid_paras is 2879,Molecular_Weight is 108.14,XLogP3 is 1.9,Hydrogen_Bond_Donor_Count is 1,Hydrogen_Bond_Acceptor_Count is 1,Rotatable_Bond_Count is 0,Exact_Mass is 108.057514874,Monoisotopic_Mass is 108.057514874,Topological_Polar_Surface_Area is 20.2,""Unit"":""Å²"",Heavy_Atom_Count is 8,Formal_Charge is 0,Complexity is 62.8,Isotope_Atom_Count is 0,Defined_Atom_Stereocenter_Count is 0,Undefined_Atom_Stereocenter_Count is 0,Defined_Bond_Stereocenter_Count is 0,Undefined_Bond_Stereocenter_Count is 0,Covalently_Bonded_Unit_Count is 1,Compound_Is_Canonicalized is Yes,Physical_Description is P-cresolisacolorlesssolidwithatarlikeodor.Sinksandmixesslowlywithwater.(USCG,1999)"",""Markup"":[{""Start"":0,""Length"":8,""URL"":""https://pubchem.ncbi.nlm.nih.gov/compound/P-cresol"",""Type"":""PubChemInternalLink"",""Extra"":""CID-2879"",Color/Form is Crystallinesolid[Note:Aliquidabove95degeesF],Odor is Phenolicodor,Boiling_Point is 395.2°Fat760mmHg(NTP,1992),Melting_Point is 94.6°F(NTP,1992),Flash_Point is 187°F(NTP,1992),Solubility is lessthan1mg/mLat70°F(NTP,1992),Density is 1.034at68°F(USCG,1999)-Denserthanwater;willsink"",""Markup"":[{""Start"":42,""Length"":5,""URL"":""https://pubchem.ncbi.nlm.nih.gov/compound/water"",""Type"":""PubChemInternalLink"",""Extra"":""CID-962"
1-iodoheptane,CCCCCCCI,0.27,0.228,"cid is 6362,compound_name is 2-Iodopropane,cid_paras is 6362,Molecular_Weight is 169.99,XLogP3 is 2.3,Hydrogen_Bond_Donor_Count is 0,Hydrogen_Bond_Acceptor_Count is 0,Rotatable_Bond_Count is 0,Exact_Mass is 169.95925,Monoisotopic_Mass is 169.95925,Topological_Polar_Surface_Area is 0,""Unit"":""Å²"",Heavy_Atom_Count is 4,Formal_Charge is 0,Complexity is 10.8,Isotope_Atom_Count is 0,Defined_Atom_Stereocenter_Count is 0,Undefined_Atom_Stereocenter_Count is 0,Defined_Bond_Stereocenter_Count is 0,Undefined_Bond_Stereocenter_Count is 0,Covalently_Bonded_Unit_Count is 1,Compound_Is_Canonicalized is Yes,Physical_Description is Colorlessliquid;Discoloredbyairandlight;[Hawley]Clearfaintlyyellow-greenliquid;Maydiscoloronlightexposure;[MSDSonline]"
pyrene,c1cc2ccc3cccc4c3c2c(c1)cc4,-4.52,-6.79,"cid is 460,compound_name is Guaiacol,cid_paras is 460,Molecular_Weight is 124.14,XLogP3 is 1.3,Hydrogen_Bond_Donor_Count is 1,Hydrogen_Bond_Acceptor_Count is 2,Rotatable_Bond_Count is 1,Exact_Mass is 124.052429494,Monoisotopic_Mass is 124.052429494,Topological_Polar_Surface_Area is 29.5,""Unit"":""Å²"",Heavy_Atom_Count is 9,Formal_Charge is 0,Complexity is 83,Isotope_Atom_Count is 0,Defined_Atom_Stereocenter_Count is 0,Undefined_Atom_Stereocenter_Count is 0,Defined_Bond_Stereocenter_Count is 0,Undefined_Bond_Stereocenter_Count is 0,Covalently_Bonded_Unit_Count is 1,Compound_Is_Canonicalized is Yes,Physical_Description is O-methoxyphenolappearsascolorlesstoambercrystalsorliquid.Density(ofsolid)1.129g/cm3.Solidifiesat28°C(82.4°F),butmayremainliquidforalongtimeevenatamuchlowertemperature.Slightlywatersoluble.Solubleinaqueoussodiumhydroxide.Usedmedicinallyasanexpectorant.Used,becauseofitsanti-oxidantproperties,asananti-skinningagentforpaints."",""Markup"":[{""Start"":0,""Length"":15,""URL"":""https://pubchem.ncbi.nlm.nih.gov/compound/O-methoxyphenol"",""Type"":""PubChemInternalLink"",""Extra"":""CID-460"",Color/Form is ALMOSTCOLORLESSORYELLOWISH,OILYLIQUID,Odor is CHARACTERISTICSMOKYODOR,Boiling_Point is 399to403°Fat760mmHg(NTP,1992),Melting_Point is SOLIDIFIESat82.4°F(NTP,1992),Flash_Point is 180°F(NTP,1992),Solubility is Slightlysoluble(NTP,1992),Density is 1.13at70.5°F(NTP,1992)-Denserthanwater;willsink"",""Markup"":[{""Start"":42,""Length"":5,""URL"":""https://pubchem.ncbi.nlm.nih.gov/compound/water"",""Type"":""PubChemInternalLink"",""Extra"":""CID-962"
1-chloro-pentane,CCCCCCl,-0.1,1.084,"cid is 8882,compound_name is Cyclopentene,cid_paras is 8882,Molecular_Weight is 68.12,XLogP3 is 1.9,Hydrogen_Bond_Donor_Count is 0,Hydrogen_Bond_Acceptor_Count is 0,Rotatable_Bond_Count is 0,Exact_Mass is 68.062600255,Monoisotopic_Mass is 68.062600255,Topological_Polar_Surface_Area is 0,""Unit"":""Å²"",Heavy_Atom_Count is 5,Formal_Charge is 0,Complexity is 38,Isotope_Atom_Count is 0,Defined_Atom_Stereocenter_Count is 0,Undefined_Atom_Stereocenter_Count is 0,Defined_Bond_Stereocenter_Count is 0,Undefined_Bond_Stereocenter_Count is 0,Covalently_Bonded_Unit_Count is 1,Compound_Is_Canonicalized is Yes,Physical_Description is Cyclopenteneappearsasacolorlessliquid.Lessdensethanwaterandinsolubleinwater.Flashpointbelow0°F.Vaporsheavierthanair.Inhalationofhighconcentrationsmaybenarcotic.Usedtomakerubberandplastics."",""Markup"":[{""Start"":0,""Length"":12,""URL"":""https://pubchem.ncbi.nlm.nih.gov/compound/Cyclopentene"",""Type"":""PubChemInternalLink"",""Extra"":""CID-8882"",Boiling_Point is 112°Fat760mmHg(USCG,1999),Melting_Point is -211°F(USCG,1999),Flash_Point is -30°F(USCG,1999),Density is 0.774(USCG,1999)-Lessdensethanwater;willfloat"",""Markup"":[{""Start"":37,""Length"":5,""URL"":""https://pubchem.ncbi.nlm.nih.gov/compound/water"",""Type"":""PubChemInternalLink"",""Extra"":""CID-962"
isobutyl acetate,CC(C)COC(=O)C,-2.36,-2.896,"cid is 6993809,compound_name is (2R)-1,1,1-trifluoropropan-2-ol,cid_paras is 6993809,Molecular_Weight is 114.07,XLogP3 is 0.7,Hydrogen_Bond_Donor_Count is 1,Hydrogen_Bond_Acceptor_Count is 4,Rotatable_Bond_Count is 0,Exact_Mass is 114.02924926,Monoisotopic_Mass is 114.02924926,Topological_Polar_Surface_Area is 20.2,""Unit"":""Å²"",Heavy_Atom_Count is 7,Formal_Charge is 0,Complexity is 57.7,Isotope_Atom_Count is 0,Defined_Atom_Stereocenter_Count is 1,Undefined_Atom_Stereocenter_Count is 0,Defined_Bond_Stereocenter_Count is 0,Undefined_Bond_Stereocenter_Count is 0,Covalently_Bonded_Unit_Count is 1,Compound_Is_Canonicalized is Yes"
"2,2-dimethylbutane",CCC(C)(C)C,2.51,2.495,"cid is 7852,compound_name is Propylamine,cid_paras is 7852,Molecular_Weight is 59.11,XLogP3 is 0.5,Hydrogen_Bond_Donor_Count is 1,Hydrogen_Bond_Acceptor_Count is 1,Rotatable_Bond_Count is 1,Exact_Mass is 59.073499291,Monoisotopic_Mass is 59.073499291,Topological_Polar_Surface_Area is 26,""Unit"":""Å²"",Heavy_Atom_Count is 4,Formal_Charge is 0,Complexity is 7.2,Isotope_Atom_Count is 0,Defined_Atom_Stereocenter_Count is 0,Undefined_Atom_Stereocenter_Count is 0,Defined_Bond_Stereocenter_Count is 0,Undefined_Bond_Stereocenter_Count is 0,Covalently_Bonded_Unit_Count is 1,Compound_Is_Canonicalized is Yes,Physical_Description is Propylamineappearsasaclearcolorlessliquidwithanammonia-likeodor.Flashpoint-35°F.Lessdensethanwaterandsolubleinwater.Vaporsareheavierthanair.Producestoxicoxidesofnitrogenduringcombustion.Usedinchemicalanalysisandtomakeotherchemicals."",""Markup"":[{""Start"":0,""Length"":11,""URL"":""https://pubchem.ncbi.nlm.nih.gov/compound/Propylamine"",""Type"":""PubChemInternalLink"",""Extra"":""CID-7852"",Color/Form is Colorlessliquid,Odor is Strongammoniaodor,Boiling_Point is 119.5°Fat760mmHg(USCG,1999),Melting_Point is -117.4°F(USCG,1999),Flash_Point is -35°F(USCG,1999),Solubility is Verysolubleinethanol,acetone;solubleinbenzene,chloroform;slightlysolubleincarbontetrachloride"",""Markup"":[{""Start"":16,""Length"":7,""URL"":""https://pubchem.ncbi.nlm.nih.gov/compound/ethanol"",""Type"":""PubChemInternalLink"",""Extra"":""CID-702"",Density is 0.7182at68°F(USCG,1999)-Lessdensethanwater;willfloat"",""Markup"":[{""Start"":47,""Length"":5,""URL"":""https://pubchem.ncbi.nlm.nih.gov/compound/water"",""Type"":""PubChemInternalLink"",""Extra"":""CID-962"
4-nitroaniline,c1cc(ccc1N)N(=O)=O,-9.82,-9.416,"cid is 6947,compound_name is 2-Nitrophenol,cid_paras is 6947,Molecular_Weight is 139.11,XLogP3 is 1.8,Hydrogen_Bond_Donor_Count is 1,Hydrogen_Bond_Acceptor_Count is 3,Rotatable_Bond_Count is 0,Exact_Mass is 139.026943022,Monoisotopic_Mass is 139.026943022,Topological_Polar_Surface_Area is 66,""Unit"":""Å²"",Heavy_Atom_Count is 10,Formal_Charge is 0,Complexity is 131,Isotope_Atom_Count is 0,Defined_Atom_Stereocenter_Count is 0,Undefined_Atom_Stereocenter_Count is 0,Defined_Bond_Stereocenter_Count is 0,Undefined_Bond_Stereocenter_Count is 0,Covalently_Bonded_Unit_Count is 1,Compound_Is_Canonicalized is Yes,Physical_Description is 2-nitrophenolisayellowsolid.Sinksinandmixesslowlywithwater.(USCG,1999)"",""Markup"":[{""Start"":0,""Length"":13,""URL"":""https://pubchem.ncbi.nlm.nih.gov/compound/2-nitrophenol"",""Type"":""PubChemInternalLink"",""Extra"":""CID-6947"",Color/Form is Lightyellowneedlesorprisms,Odor is Peculiar,aromaticcolor,Boiling_Point is 417to421°Fat760mmHg(Decomposes)(NTP,1992),Melting_Point is 113to115°F(NTP,1992),Flash_Point is 108°Cc.c.,Solubility is lessthan1mg/mLat70°F(NTP,1992),Density is 1.49at68°F(USCG,1999)-Denserthanwater;willsink"",""Markup"":[{""Start"":41,""Length"":5,""URL"":""https://pubchem.ncbi.nlm.nih.gov/compound/water"",""Type"":""PubChemInternalLink"",""Extra"":""CID-962"
methyl 2-cyanoacetate,COC(=O)CC#N,-6.72,-6.36,"cid is 10326,compound_name is Indan,cid_paras is 10326,Molecular_Weight is 118.18,XLogP3 is 3.2,Hydrogen_Bond_Donor_Count is 0,Hydrogen_Bond_Acceptor_Count is 0,Rotatable_Bond_Count is 0,Exact_Mass is 118.078250319,Monoisotopic_Mass is 118.078250319,Topological_Polar_Surface_Area is 0,""Unit"":""Å²"",Heavy_Atom_Count is 9,Formal_Charge is 0,Complexity is 84.2,Isotope_Atom_Count is 0,Defined_Atom_Stereocenter_Count is 0,Undefined_Atom_Stereocenter_Count is 0,Defined_Bond_Stereocenter_Count is 0,Undefined_Bond_Stereocenter_Count is 0,Covalently_Bonded_Unit_Count is 1,Compound_Is_Canonicalized is Yes,Physical_Description is Liquid;[MerckIndex]Clearlightyellowliquid;[Sigma-AldrichMSDS]"
4-methoxyaniline,COc1ccc(cc1)N,-7.48,-7.016,"cid is 8370,compound_name is Hexachlorobenzene,cid_paras is 8370,Molecular_Weight is 284.8,XLogP3 is 5.7,Hydrogen_Bond_Donor_Count is 0,Hydrogen_Bond_Acceptor_Count is 0,Rotatable_Bond_Count is 0,Exact_Mass is 283.810166,Monoisotopic_Mass is 281.813116,Topological_Polar_Surface_Area is 0,""Unit"":""Å²"",Heavy_Atom_Count is 12,Formal_Charge is 0,Complexity is 104,Isotope_Atom_Count is 0,Defined_Atom_Stereocenter_Count is 0,Undefined_Atom_Stereocenter_Count is 0,Defined_Bond_Stereocenter_Count is 0,Undefined_Bond_Stereocenter_Count is 0,Covalently_Bonded_Unit_Count is 1,Compound_Is_Canonicalized is Yes,Physical_Description is Hexachlorobenzeneappearsasawhitecrystallinesubstance.Insolubleinwateranddenserthanwater.Contactmayirritateskin,eyesandmucousmembranes.Maybetoxicbyingestion.Usedtomakeotherchemicals."",""Markup"":[{""Start"":0,""Length"":17,""URL"":""https://pubchem.ncbi.nlm.nih.gov/compound/Hexachlorobenzene"",""Type"":""PubChemInternalLink"",""Extra"":""CID-8370"",Color/Form is Whiteneedles,Boiling_Point is 612°Fat760mmHg(sublimes)(NTP,1992),Melting_Point is 441to444°F(NTP,1992),Flash_Point is 468°F(NTP,1992),Solubility is lessthan1mg/mLat68°F(NTP,1992),Density is 2.044at75.2°F(USCG,1999)-Denserthanwater;willsink"",""Markup"":[{""Start"":44,""Length"":5,""URL"":""https://pubchem.ncbi.nlm.nih.gov/compound/water"",""Type"":""PubChemInternalLink"",""Extra"":""CID-962"
isobutylbenzene,CC(C)Cc1ccccc1,0.16,-0.257,"cid is 3017,compound_name is Diazinon,cid_paras is 3017,Molecular_Weight is 304.35,XLogP3 is 3.8,Hydrogen_Bond_Donor_Count is 0,Hydrogen_Bond_Acceptor_Count is 6,Rotatable_Bond_Count is 7,Exact_Mass is 304.10105071,Monoisotopic_Mass is 304.10105071,Topological_Polar_Surface_Area is 85.6,""Unit"":""Å²"",Heavy_Atom_Count is 19,Formal_Charge is 0,Complexity is 307,Isotope_Atom_Count is 0,Defined_Atom_Stereocenter_Count is 0,Undefined_Atom_Stereocenter_Count is 0,Defined_Bond_Stereocenter_Count is 0,Undefined_Bond_Stereocenter_Count is 0,Covalently_Bonded_Unit_Count is 1,Compound_Is_Canonicalized is Yes,Physical_Description is Liquid;lighttodarkbrown.Sinksinwater.Commercialsolutionscancontainethanol/xylene/acetonewithaflashpointintherange82-105°F."",""Markup"":[{""Start"":38,""Length"":5,""URL"":""https://pubchem.ncbi.nlm.nih.gov/compound/water"",""Type"":""PubChemInternalLink"",""Extra"":""CID-962"",Color/Form is Colorlessoil,Odor is Faintester-likeodor,Boiling_Point is Decomposes>248°F(NTP,1992),Melting_Point is <25°C,Flash_Point is 82to105°F(commercialsolutions)(NTP,1992),Solubility is lessthan1mg/mLat75°F(NTP,1992),Density is 1.117at68°F(USCG,1999)-Denserthanwater;willsink"",""Markup"":[{""Start"":42,""Length"":5,""URL"":""https://pubchem.ncbi.nlm.nih.gov/compound/water"",""Type"":""PubChemInternalLink"",""Extra"":""CID-962"