iupac,smiles,expt,calc,Description
decane,CCCCCCCCCC,3.16,3.335,"cid is 8012,compound_name is 1-Butanethiol,cid_paras is 8012,Molecular_Weight is 90.19,XLogP3 is 2.3,Hydrogen_Bond_Donor_Count is 1,Hydrogen_Bond_Acceptor_Count is 1,Rotatable_Bond_Count is 2,Exact_Mass is 90.05032149,Monoisotopic_Mass is 90.05032149,Topological_Polar_Surface_Area is 1,""Unit"":""Å²"",Heavy_Atom_Count is 5,Formal_Charge is 0,Complexity is 13.1,Isotope_Atom_Count is 0,Defined_Atom_Stereocenter_Count is 0,Undefined_Atom_Stereocenter_Count is 0,Defined_Bond_Stereocenter_Count is 0,Undefined_Bond_Stereocenter_Count is 0,Covalently_Bonded_Unit_Count is 1,Compound_Is_Canonicalized is Yes,Physical_Description is Butylmercaptanappearsasaclear,colorlessliquidwithastrongskunk-likeodor.Flashpointinrange-18to43°F.Lessdensethanwaterandslightlysolubleinwater.Vaporsheavierthanair."",""Markup"":[{""Start"":0,""Length"":15,""URL"":""https://pubchem.ncbi.nlm.nih.gov/compound/Butyl%20mercaptan"",""Type"":""PubChemInternalLink"",""Extra"":""CID-8012"",Color/Form is Colorlessliquid,Odor is Strong,obnoxiousodor,Boiling_Point is 229.3°Fat760mmHg(USCG,1999),Melting_Point is -176.2°F(USCG,1999),Flash_Point is 55°F(USCG,1999),Solubility is 0.06%(NIOSH,2024),Density is 0.841at68°F(USCG,1999)-Lessdensethanwater;willfloat"",""Markup"":[{""Start"":46,""Length"":5,""URL"":""https://pubchem.ncbi.nlm.nih.gov/compound/water"",""Type"":""PubChemInternalLink"",""Extra"":""CID-962"
"1,2-dinitroxypropane",C[C@@H](CO[N+](=O)[O-])O[N+](=O)[O-],-4.95,-5.646,"cid is 35454,compound_name is 1,2,3,4-Tetrachlorodibenzo-P-dioxin,cid_paras is 35454,Molecular_Weight is 322.0,XLogP3 is 7.2,Hydrogen_Bond_Donor_Count is 0,Hydrogen_Bond_Acceptor_Count is 2,Rotatable_Bond_Count is 0,Exact_Mass is 321.893590,Monoisotopic_Mass is 319.896540,Topological_Polar_Surface_Area is 18.5,""Unit"":""Å²"",Heavy_Atom_Count is 18,Formal_Charge is 0,Complexity is 287,Isotope_Atom_Count is 0,Defined_Atom_Stereocenter_Count is 0,Undefined_Atom_Stereocenter_Count is 0,Defined_Bond_Stereocenter_Count is 0,Undefined_Bond_Stereocenter_Count is 0,Covalently_Bonded_Unit_Count is 1,Compound_Is_Canonicalized is Yes,Physical_Description is 1,2,3,4-tetrachlorodibenzo-p-dioxinappearsascolorlessneedlesorwhitepowder.(NTP,1992)"",""Markup"":[{""Start"":0,""Length"":35,""URL"":""https://pubchem.ncbi.nlm.nih.gov/compound/1%2C2%2C3%2C4-tetrachlorodibenzo-p-dioxin"",""Type"":""PubChemInternalLink"",""Extra"":""CID-35454,Melting_Point is 363to367°F(NTP,1992)"
prop-1-ene,CC=C,1.32,2.328,"cid is 53476,compound_name is Benzaldehyde, 2,6-dichloro-4-hydroxy-3,5-dimethoxy-,cid_paras is 53476,Molecular_Weight is 251.06,XLogP3 is 2.6,Hydrogen_Bond_Donor_Count is 1,Hydrogen_Bond_Acceptor_Count is 4,Rotatable_Bond_Count is 3,Exact_Mass is 249.9799641,Monoisotopic_Mass is 249.9799641,Topological_Polar_Surface_Area is 55.8,""Unit"":""Å²"",Heavy_Atom_Count is 15,Formal_Charge is 0,Complexity is 208,Isotope_Atom_Count is 0,Defined_Atom_Stereocenter_Count is 0,Undefined_Atom_Stereocenter_Count is 0,Defined_Bond_Stereocenter_Count is 0,Undefined_Bond_Stereocenter_Count is 0,Covalently_Bonded_Unit_Count is 1,Compound_Is_Canonicalized is Yes"
3-methyl-1H-indole,Cc1c[nH]c2c1cccc2,-5.88,-8.161,"cid is 7965,compound_name is Cyclohexylamine,cid_paras is 7965,Molecular_Weight is 99.17,XLogP3 is 1.5,Hydrogen_Bond_Donor_Count is 1,Hydrogen_Bond_Acceptor_Count is 1,Rotatable_Bond_Count is 0,Exact_Mass is 99.104799419,Monoisotopic_Mass is 99.104799419,Topological_Polar_Surface_Area is 26,""Unit"":""Å²"",Heavy_Atom_Count is 7,Formal_Charge is 0,Complexity is 46.1,Isotope_Atom_Count is 0,Defined_Atom_Stereocenter_Count is 0,Undefined_Atom_Stereocenter_Count is 0,Defined_Bond_Stereocenter_Count is 0,Undefined_Bond_Stereocenter_Count is 0,Covalently_Bonded_Unit_Count is 1,Compound_Is_Canonicalized is Yes,Physical_Description is Cyclohexylamineappearsasaclearcolorlesstoyellowliquidwithanodorofammonia.Flashpoint90°F.Irritatestheeyesandrespiratorysystem.Skincontactmaycauseburns.Lessdensethanwater.Vaporsheavierthanair.Toxicoxidesofnitrogenproducedduringcombustion."",""Markup"":[{""Start"":0,""Length"":15,""URL"":""https://pubchem.ncbi.nlm.nih.gov/compound/Cyclohexylamine"",""Type"":""PubChemInternalLink"",""Extra"":""CID-7965"",Color/Form is Colorlessoryellowliquid.,Odor is Strong,fishy,amineodor.,Boiling_Point is 274.1°Fat760mmHg(EPA,1998),Melting_Point is 0.1°F(EPA,1998),Flash_Point is 88°F(EPA,1998),Solubility is Verysoluble(NTP,1992),Density is 0.8647at77°F(EPA,1998)-Lessdensethanwater;willfloat"",""Markup"":[{""Start"":46,""Length"":5,""URL"":""https://pubchem.ncbi.nlm.nih.gov/compound/water"",""Type"":""PubChemInternalLink"",""Extra"":""CID-962"
"(1R)-2,2,2-trichloro-1-dimethoxyphosphoryl-ethanol",COP(=O)([C@H](C(Cl)(Cl)Cl)O)OC,-12.74,-13.424,"cid is 6372,compound_name is Chlorodifluoromethane,cid_paras is 6372,Molecular_Weight is 86.47,XLogP3 is 1.8,Hydrogen_Bond_Donor_Count is 0,Hydrogen_Bond_Acceptor_Count is 2,Rotatable_Bond_Count is 0,Exact_Mass is 85.9734841,Monoisotopic_Mass is 85.9734841,Topological_Polar_Surface_Area is 0,""Unit"":""Å²"",Heavy_Atom_Count is 4,Formal_Charge is 0,Complexity is 13.5,Isotope_Atom_Count is 0,Defined_Atom_Stereocenter_Count is 0,Undefined_Atom_Stereocenter_Count is 0,Defined_Bond_Stereocenter_Count is 0,Undefined_Bond_Stereocenter_Count is 0,Covalently_Bonded_Unit_Count is 1,Compound_Is_Canonicalized is Yes,Physical_Description is Chlorodifluoromethaneisacolorlessgaswithanetherealodor.Itisshippedasaliquefiedgasunderitsownvaporpressure.Itisnoncombustible.Itcanasphyxiatebythedisplacementofair.Contactwiththeliquidcancausefrostbite.Toxicgasescanbeproducedinfiresinvolvingthismaterial.Exposureofthecontainertoprolongedheatorfiremaycauseittoruptureviolentlyandrocket."",""Markup"":[{""Start"":0,""Length"":21,""URL"":""https://pubchem.ncbi.nlm.nih.gov/compound/Chlorodifluoromethane"",""Type"":""PubChemInternalLink"",""Extra"":""CID-6372,Color/Form is Colorlessgas...[Note:Shippedasaliquefiedcompressedgas],Odor is Nearlyodorless,Boiling_Point is -40.9°Fat760mmHg(USCG,1999),Melting_Point is -231°F(NIOSH,2024),Solubility is 0.3%at77°F(NIOSH,2024),Density is 1.41at-40°F(USCG,1999)-Denserthanwater;willsink"",""Markup"":[{""Start"":42,""Length"":5,""URL"":""https://pubchem.ncbi.nlm.nih.gov/compound/water"",""Type"":""PubChemInternalLink"",""Extra"":""CID-962"
cyclohexane,C1CCCCC1,1.23,1.503,"cid is 12083,compound_name is Methyl 4-nitrobenzoate,cid_paras is 12083,Molecular_Weight is 181.15,XLogP3 is 1.9,Hydrogen_Bond_Donor_Count is 0,Hydrogen_Bond_Acceptor_Count is 4,Rotatable_Bond_Count is 2,Exact_Mass is 181.03750770,Monoisotopic_Mass is 181.03750770,Topological_Polar_Surface_Area is 72.1,""Unit"":""Å²"",Heavy_Atom_Count is 13,Formal_Charge is 0,Complexity is 203,Isotope_Atom_Count is 0,Defined_Atom_Stereocenter_Count is 0,Undefined_Atom_Stereocenter_Count is 0,Defined_Bond_Stereocenter_Count is 0,Undefined_Bond_Stereocenter_Count is 0,Covalently_Bonded_Unit_Count is 1,Compound_Is_Canonicalized is Yes"
"(2E)-3,7-dimethylocta-2,6-dien-1-ol",CC(=CCC/C(=C/CO)/C)C,-4.45,-2.518,"cid is 10326,compound_name is Indan,cid_paras is 10326,Molecular_Weight is 118.18,XLogP3 is 3.2,Hydrogen_Bond_Donor_Count is 0,Hydrogen_Bond_Acceptor_Count is 0,Rotatable_Bond_Count is 0,Exact_Mass is 118.078250319,Monoisotopic_Mass is 118.078250319,Topological_Polar_Surface_Area is 0,""Unit"":""Å²"",Heavy_Atom_Count is 9,Formal_Charge is 0,Complexity is 84.2,Isotope_Atom_Count is 0,Defined_Atom_Stereocenter_Count is 0,Undefined_Atom_Stereocenter_Count is 0,Defined_Bond_Stereocenter_Count is 0,Undefined_Bond_Stereocenter_Count is 0,Covalently_Bonded_Unit_Count is 1,Compound_Is_Canonicalized is Yes,Physical_Description is Liquid;[MerckIndex]Clearlightyellowliquid;[Sigma-AldrichMSDS]"
cumene,CC(C)c1ccccc1,-0.3,-0.674,"cid is 31289,compound_name is Nonanal,cid_paras is 31289,Molecular_Weight is 142.24,XLogP3 is 3.3,Hydrogen_Bond_Donor_Count is 0,Hydrogen_Bond_Acceptor_Count is 1,Rotatable_Bond_Count is 7,Exact_Mass is 142.135765193,Monoisotopic_Mass is 142.135765193,Topological_Polar_Surface_Area is 17.1,""Unit"":""Å²"",Heavy_Atom_Count is 10,Formal_Charge is 0,Complexity is 69.1,Isotope_Atom_Count is 0,Defined_Atom_Stereocenter_Count is 0,Undefined_Atom_Stereocenter_Count is 0,Defined_Bond_Stereocenter_Count is 0,Undefined_Bond_Stereocenter_Count is 0,Covalently_Bonded_Unit_Count is 1,Compound_Is_Canonicalized is Yes,Physical_Description is Nonanalisaclearbrownliquidcharacterizedbyarose-orangeodor.Insolubleinwater.Foundinatleast20essentialoils,includingroseandcitrusoilsandseveralspeciesofpineoil."",""Markup"":[{""Start"":0,""Length"":7,""URL"":""https://pubchem.ncbi.nlm.nih.gov/compound/Nonanal"",""Type"":""PubChemInternalLink"",""Extra"":""CID-31289"",Color/Form is Colorlessliquid,Odor is Orange-roseodor,Boiling_Point is 374to378°Fat760mmHg(NTP,1992),Melting_Point is 145°F(NTP,1992),Flash_Point is 182°F(NTP,1992),Solubility is Insoluble(<1mg/ml)(NTP,1992),Density is 0.8264at72°F(NTP,1992)-Lessdensethanwater;willfloat"",""Markup"":[{""Start"":46,""Length"":5,""URL"":""https://pubchem.ncbi.nlm.nih.gov/compound/water"",""Type"":""PubChemInternalLink"",""Extra"":""CID-962"
"2,3,4-trimethylpentane",CC(C)C(C)C(C)C,2.56,2.674,"cid is 1032,compound_name is Propionic Acid,cid_paras is 1032,Molecular_Weight is 74.08,XLogP3 is 0.3,Hydrogen_Bond_Donor_Count is 1,Hydrogen_Bond_Acceptor_Count is 2,Rotatable_Bond_Count is 1,Exact_Mass is 74.036779430,Monoisotopic_Mass is 74.036779430,Topological_Polar_Surface_Area is 37.3,""Unit"":""Å²"",Heavy_Atom_Count is 5,Formal_Charge is 0,Complexity is 40.2,Isotope_Atom_Count is 0,Defined_Atom_Stereocenter_Count is 0,Undefined_Atom_Stereocenter_Count is 0,Defined_Bond_Stereocenter_Count is 0,Undefined_Bond_Stereocenter_Count is 0,Covalently_Bonded_Unit_Count is 1,Compound_Is_Canonicalized is Yes,Physical_Description is Propionicacidisacolorlessliquidwithasharprancidodor.Producesirritatingvapor.(USCG,1999)"",""Markup"":[{""Start"":0,""Length"":14,""URL"":""https://pubchem.ncbi.nlm.nih.gov/compound/Propionic%20acid"",""Type"":""PubChemInternalLink"",""Extra"":""CID-1032,Color/Form is Colorless,oilyliquid[Note:Asolidbelow5degreesF],Odor is Slightlypungentdisagreeable,rancidodor,Boiling_Point is 285.3°Fat760mmHg(NTP,1992),Melting_Point is -6.7°F(NTP,1992),Flash_Point is 130°F(NTP,1992),Solubility is greaterthanorequalto100mg/mLat72°F(NTP,1992),Density is 0.995at68°F(USCG,1999)-Lessdensethanwater;willfloat"",""Markup"":[{""Start"":46,""Length"":5,""URL"":""https://pubchem.ncbi.nlm.nih.gov/compound/water"",""Type"":""PubChemInternalLink"",""Extra"":""CID-962"
3-methylbutan-2-one,CC(C)C(=O)C,-3.24,-3.078,"cid is 6212,compound_name is Chloroform,cid_paras is 6212,Molecular_Weight is 119.37,XLogP3 is 2.3,Hydrogen_Bond_Donor_Count is 0,Hydrogen_Bond_Acceptor_Count is 0,Rotatable_Bond_Count is 0,Exact_Mass is 117.914383,Monoisotopic_Mass is 117.914383,Topological_Polar_Surface_Area is 0,""Unit"":""Å²"",Heavy_Atom_Count is 4,Formal_Charge is 0,Complexity is 8,Isotope_Atom_Count is 0,Defined_Atom_Stereocenter_Count is 0,Undefined_Atom_Stereocenter_Count is 0,Defined_Bond_Stereocenter_Count is 0,Undefined_Bond_Stereocenter_Count is 0,Covalently_Bonded_Unit_Count is 1,Compound_Is_Canonicalized is Yes,Physical_Description is Chloroformappearsasaclearcolorlessliquidwithacharacteristicodor.Denser(12.3lb/gal)thanwaterandslightlysolubleinwater.Hencesinksinwater.Nonflammableundermostconditions,butburnsunderextremeconditions.Maycauseillnessbyinhalation,skinabsorptionoringestion.Usedasasolvent,tomakeotherchemicals,asafumigant."",""Markup"":[{""Start"":0,""Length"":10,""URL"":""https://pubchem.ncbi.nlm.nih.gov/compound/Chloroform"",""Type"":""PubChemInternalLink"",""Extra"":""CID-6212"",Color/Form is Highlyrefractive,nonflammable,heavy,veryvolatileliquid,Odor is Pleasant,etheric,nonirritating,Boiling_Point is 143°Fat760mmHg(EPA,1998),Melting_Point is -82.3°F(EPA,1998),Flash_Point is None(EPA,1998),Solubility is lessthan1mg/mLat66°F(NTP,1992),Density is 1.4832at68°F(EPA,1998)-Denserthanwater;willsink"",""Markup"":[{""Start"":42,""Length"":5,""URL"":""https://pubchem.ncbi.nlm.nih.gov/compound/water"",""Type"":""PubChemInternalLink"",""Extra"":""CID-962"
N-butylbutan-1-amine,CCCCNCCCC,-3.24,-2.076,"cid is 10686,compound_name is Trimethylbenzene,cid_paras is 10686,Molecular_Weight is 120.19,XLogP3 is 3.6,Hydrogen_Bond_Donor_Count is 0,Hydrogen_Bond_Acceptor_Count is 0,Rotatable_Bond_Count is 0,Exact_Mass is 120.093900383,Monoisotopic_Mass is 120.093900383,Topological_Polar_Surface_Area is 0,""Unit"":""Å²"",Heavy_Atom_Count is 9,Formal_Charge is 0,Complexity is 76,Isotope_Atom_Count is 0,Defined_Atom_Stereocenter_Count is 0,Undefined_Atom_Stereocenter_Count is 0,Defined_Bond_Stereocenter_Count is 0,Undefined_Bond_Stereocenter_Count is 0,Covalently_Bonded_Unit_Count is 1,Compound_Is_Canonicalized is Yes,Physical_Description is Liquid,Color/Form is Colorlessliquid,Odor is Distinctive,aromaticodor,Boiling_Point is 176.12°C,Melting_Point is -25.4°C,Flash_Point is 44to53°C(closedcup),Solubility is Misciblewithethanol,ether,acetone,benzene,petroleumether,carbontetrachloride"",""Markup"":[{""Start"":14,""Length"":7,""URL"":""https://pubchem.ncbi.nlm.nih.gov/compound/ethanol"",""Type"":""PubChemInternalLink"",""Extra"":""CID-702"",Density is 0.8944g/cucmat20°C"
butane-1-thiol,CCCCS,-0.99,-0.174,"cid is 297,compound_name is Methane,cid_paras is 297,Molecular_Weight is 16.043,XLogP3 is 0.6,Hydrogen_Bond_Donor_Count is 0,Hydrogen_Bond_Acceptor_Count is 0,Rotatable_Bond_Count is 0,Exact_Mass is 16.0313001276,Monoisotopic_Mass is 16.0313001276,Topological_Polar_Surface_Area is 0,""Unit"":""Å²"",Heavy_Atom_Count is 1,Formal_Charge is 0,Complexity is 0,Isotope_Atom_Count is 0,Defined_Atom_Stereocenter_Count is 0,Undefined_Atom_Stereocenter_Count is 0,Defined_Bond_Stereocenter_Count is 0,Undefined_Bond_Stereocenter_Count is 0,Covalently_Bonded_Unit_Count is 1,Compound_Is_Canonicalized is Yes,Physical_Description is Methaneisacolorlessodorlessgas.Itisalsoknownasmarshgasormethylhydride.Itiseasilyignited.Thevaporsarelighterthanair.Underprolongedexposuretofireorintenseheatthecontainersmayruptureviolentlyandrocket.Itisusedinmakingotherchemicalsandasaconstituentofthefuel,naturalgas."",""Markup"":[{""Start"":0,""Length"":7,""URL"":""https://pubchem.ncbi.nlm.nih.gov/compound/Methane"",""Type"":""PubChemInternalLink"",""Extra"":""CID-297"",Color/Form is Colorlessgas,Odor is Odorless,Boiling_Point is -258°Fat760mmHg(USCG,1999),Melting_Point is -296°F(USCG,1999),Flash_Point is -306°F(NTP,1992),Solubility is 3.5mL/100mLat63°F(NTP,1992),Density is 0.415to0.45at-259.6°F(USCG,1999)"
"1,2,3,4-tetrachlorodibenzo-p-dioxin",c1ccc2c(c1)Oc3c(c(c(c(c3Cl)Cl)Cl)Cl)O2,-3.81,-2.775,"cid is 7503,compound_name is Benzyl Chloride,cid_paras is 7503,Molecular_Weight is 126.58,XLogP3 is 2.3,Hydrogen_Bond_Donor_Count is 0,Hydrogen_Bond_Acceptor_Count is 0,Rotatable_Bond_Count is 1,Exact_Mass is 126.0236279,Monoisotopic_Mass is 126.0236279,Topological_Polar_Surface_Area is 0,""Unit"":""Å²"",Heavy_Atom_Count is 8,Formal_Charge is 0,Complexity is 55.4,Isotope_Atom_Count is 0,Defined_Atom_Stereocenter_Count is 0,Undefined_Atom_Stereocenter_Count is 0,Defined_Bond_Stereocenter_Count is 0,Undefined_Bond_Stereocenter_Count is 0,Covalently_Bonded_Unit_Count is 1,Compound_Is_Canonicalized is Yes,Physical_Description is Benzylchlorideappearsasacolorlessliquidwithanirritatingodor.Toxicbyinhalationandskinabsorption.Flashpoint153°F.Slightlysolubleinwater.Corrosivetometalsandtissue.Alachrymator.Density9.2lb/gal."",""Markup"":[{""Start"":0,""Length"":15,""URL"":""https://pubchem.ncbi.nlm.nih.gov/compound/Benzyl%20chloride"",""Type"":""PubChemInternalLink"",""Extra"":""CID-7503"",Color/Form is Colorlesstoslightlyyellowliquid,Odor is Ratherunpleasant,irritatingodor,Boiling_Point is 354°Fat760mmHg(EPA,1998),Melting_Point is -54to-45°F(EPA,1998),Flash_Point is 153°F(EPA,1998),Solubility is Reaction(NTP,1992),Density is 1.1at68°F(EPA,1998)-Denserthanwater;willsink"",""Markup"":[{""Start"":39,""Length"":5,""URL"":""https://pubchem.ncbi.nlm.nih.gov/compound/water"",""Type"":""PubChemInternalLink"",""Extra"":""CID-962"
"2,6-dichlorosyringaldehyde",COc1c(c(c(c(c1Cl)C=O)Cl)OC)O,-8.68,-9.846,"cid is 7962,compound_name is Methylcyclohexane,cid_paras is 7962,Molecular_Weight is 98.19,XLogP3 is 3.6,Hydrogen_Bond_Donor_Count is 0,Hydrogen_Bond_Acceptor_Count is 0,Rotatable_Bond_Count is 0,Exact_Mass is 98.109550447,Monoisotopic_Mass is 98.109550447,Topological_Polar_Surface_Area is 0,""Unit"":""Å²"",Heavy_Atom_Count is 7,Formal_Charge is 0,Complexity is 42,Isotope_Atom_Count is 0,Defined_Atom_Stereocenter_Count is 0,Undefined_Atom_Stereocenter_Count is 0,Defined_Bond_Stereocenter_Count is 0,Undefined_Bond_Stereocenter_Count is 0,Covalently_Bonded_Unit_Count is 1,Compound_Is_Canonicalized is Yes,Physical_Description is Methylcyclohexaneappearsasaclearcolorlessliquidwithapetroleum-likeodor.Flashpoint25°F.Lessdensethanwaterandinsolubleinwater.Vaporsheavierthanair."",""Markup"":[{""Start"":0,""Length"":17,""URL"":""https://pubchem.ncbi.nlm.nih.gov/compound/Methylcyclohexane"",""Type"":""PubChemInternalLink"",""Extra"":""CID-7962"",Color/Form is COLORLESSLIQUID,Odor is Faint,benzene-likeodor.,Boiling_Point is 213.8°Fat760mmHg(USCG,1999),Melting_Point is -194.8°F(USCG,1999),Flash_Point is 25°F(USCG,1999),Solubility is Insoluble(NIOSH,2024),Density is 0.77(USCG,1999)-Lessdensethanwater;willfloat"",""Markup"":[{""Start"":36,""Length"":5,""URL"":""https://pubchem.ncbi.nlm.nih.gov/compound/water"",""Type"":""PubChemInternalLink"",""Extra"":""CID-962"
cyclohexanamine,C1CCC(CC1)N,-4.59,-3.953,"cid is 11126,compound_name is 2-Methylthiophene,cid_paras is 11126,Molecular_Weight is 98.17,XLogP3 is 2.3,Hydrogen_Bond_Donor_Count is 0,Hydrogen_Bond_Acceptor_Count is 1,Rotatable_Bond_Count is 0,Exact_Mass is 98.01902136,Monoisotopic_Mass is 98.01902136,Topological_Polar_Surface_Area is 28.2,""Unit"":""Å²"",Heavy_Atom_Count is 6,Formal_Charge is 0,Complexity is 43.2,Isotope_Atom_Count is 0,Defined_Atom_Stereocenter_Count is 0,Undefined_Atom_Stereocenter_Count is 0,Defined_Bond_Stereocenter_Count is 0,Undefined_Bond_Stereocenter_Count is 0,Covalently_Bonded_Unit_Count is 1,Compound_Is_Canonicalized is Yes,Physical_Description is Clearcolorlessliquid;[Sigma-AldrichMSDS],Boiling_Point is 112.00°C.@760.00mmHg,Melting_Point is -63.4°C,Solubility is 112.6mg/L@25°C(exp)"
chloro-difluoro-methane,C(F)(F)Cl,-0.5,-0.067,"cid is 1049,compound_name is Pyridine,cid_paras is 1049,Molecular_Weight is 79.10,XLogP3 is 0.7,Hydrogen_Bond_Donor_Count is 0,Hydrogen_Bond_Acceptor_Count is 1,Rotatable_Bond_Count is 0,Exact_Mass is 79.042199164,Monoisotopic_Mass is 79.042199164,Topological_Polar_Surface_Area is 12.9,""Unit"":""Å²"",Heavy_Atom_Count is 6,Formal_Charge is 0,Complexity is 30.9,Isotope_Atom_Count is 0,Defined_Atom_Stereocenter_Count is 0,Undefined_Atom_Stereocenter_Count is 0,Defined_Bond_Stereocenter_Count is 0,Undefined_Bond_Stereocenter_Count is 0,Covalently_Bonded_Unit_Count is 1,Compound_Is_Canonicalized is Yes,Physical_Description is Pyridineappearsasaclearcolorlesstolightyellowliquidwithapenetratingnauseatingodor.Vaporsareheavierthanair.Toxicbyingestionandinhalation.Combustionproducestoxicoxidesofnitrogen."",""Markup"":[{""Start"":0,""Length"":8,""URL"":""https://pubchem.ncbi.nlm.nih.gov/compound/Pyridine"",""Type"":""PubChemInternalLink"",""Extra"":""CID-1049,Color/Form is Colorlesstoyellowliquid.,Odor is Sharp,nauseating,Boiling_Point is 239°Fat760mmHg(NTP,1992),Melting_Point is -44°F(NTP,1992),Flash_Point is 68°F(NTP,1992),Solubility is greaterthanorequalto100mg/mLat70.7°F(NTP,1992),Density is 0.983at68°F(USCG,1999)-Lessdensethanwater;willfloat"",""Markup"":[{""Start"":46,""Length"":5,""URL"":""https://pubchem.ncbi.nlm.nih.gov/compound/water"",""Type"":""PubChemInternalLink"",""Extra"":""CID-962"