iupac,smiles,expt,calc,Description
1-ethylnaphthalene,CCc1cccc2c1cccc2,-2.4,-2.961,"cid is 7812,compound_name is 4-Chloroaniline,cid_paras is 7812,Molecular_Weight is 127.57,XLogP3 is 1.9,Hydrogen_Bond_Donor_Count is 1,Hydrogen_Bond_Acceptor_Count is 1,Rotatable_Bond_Count is 0,Exact_Mass is 127.0188769,Monoisotopic_Mass is 127.0188769,Topological_Polar_Surface_Area is 26,""Unit"":""Å²"",Heavy_Atom_Count is 8,Formal_Charge is 0,Complexity is 66.9,Isotope_Atom_Count is 0,Defined_Atom_Stereocenter_Count is 0,Undefined_Atom_Stereocenter_Count is 0,Defined_Bond_Stereocenter_Count is 0,Undefined_Bond_Stereocenter_Count is 0,Covalently_Bonded_Unit_Count is 1,Compound_Is_Canonicalized is Yes,Physical_Description is P-chloroanilineappearsasawhiteorpaleyellowsolid.Meltingpoint69.5°C."",""Markup"":[{""Start"":0,""Length"":15,""URL"":""https://pubchem.ncbi.nlm.nih.gov/compound/P-chloroaniline"",""Type"":""PubChemInternalLink"",""Extra"":""CID-7812,Color/Form is Orthorhombiccrystalsfromalcoholorpetroleumether,Odor is SLIGHTLYSWEETISH;CHARACTERISTICAMINEODOR,Boiling_Point is 450°Fat760mmHg(NTP,1992),Melting_Point is 162.5°F(NTP,1992),Flash_Point is 235°F(NTP,1992),Solubility is lessthan1mg/mLat74.3°F(NTP,1992),Density is 1.43at66.2°F(USCG,1999)-Denserthanwater;willsink"",""Markup"":[{""Start"":43,""Length"":5,""URL"":""https://pubchem.ncbi.nlm.nih.gov/compound/water"",""Type"":""PubChemInternalLink"",""Extra"":""CID-962"
pentan-2-one,CCCC(=O)C,-3.52,-3.166,"cid is 6710,compound_name is 1-Aminoanthraquinone,cid_paras is 6710,Molecular_Weight is 223.23,XLogP3 is 3.2,Hydrogen_Bond_Donor_Count is 1,Hydrogen_Bond_Acceptor_Count is 3,Rotatable_Bond_Count is 0,Exact_Mass is 223.063328530,Monoisotopic_Mass is 223.063328530,Topological_Polar_Surface_Area is 60.2,""Unit"":""Å²"",Heavy_Atom_Count is 17,Formal_Charge is 0,Complexity is 352,Isotope_Atom_Count is 0,Defined_Atom_Stereocenter_Count is 0,Undefined_Atom_Stereocenter_Count is 0,Defined_Bond_Stereocenter_Count is 0,Undefined_Bond_Stereocenter_Count is 0,Covalently_Bonded_Unit_Count is 1,Compound_Is_Canonicalized is Yes,Physical_Description is Ruby-redsolid;[MerckIndex]Darkredtobrowncrystallinepowder;[AcrosOrganicsMSDS]"
"1,2,3,4-tetrachloro-5-(2,3,4,6-tetrachlorophenyl)benzene",c1c(c(c(c(c1Cl)Cl)Cl)Cl)c2c(cc(c(c2Cl)Cl)Cl)Cl,-4.61,-0.039,"cid is 11420,compound_name is 2,3-Dimethylpyridine,cid_paras is 11420,Molecular_Weight is 107.15,XLogP3 is 1.6,Hydrogen_Bond_Donor_Count is 0,Hydrogen_Bond_Acceptor_Count is 1,Rotatable_Bond_Count is 0,Exact_Mass is 107.073499291,Monoisotopic_Mass is 107.073499291,Topological_Polar_Surface_Area is 12.9,""Unit"":""Å²"",Heavy_Atom_Count is 8,Formal_Charge is 0,Complexity is 70.8,Isotope_Atom_Count is 0,Defined_Atom_Stereocenter_Count is 0,Undefined_Atom_Stereocenter_Count is 0,Defined_Bond_Stereocenter_Count is 0,Undefined_Bond_Stereocenter_Count is 0,Covalently_Bonded_Unit_Count is 1,Compound_Is_Canonicalized is Yes,Physical_Description is Colorlessoryellowliquid;[AlfaAesarMSDS]"
profluralin,CCC[N@@](CC1CC1)c2c(cc(cc2[N+](=O)[O-])C(F)(F)F)[N+](=O)[O-],-2.45,-1.956,"cid is 4790,compound_name is Phorate,cid_paras is 4790,Molecular_Weight is 260.4,XLogP3 is 3.6,Hydrogen_Bond_Donor_Count is 0,Hydrogen_Bond_Acceptor_Count is 5,Rotatable_Bond_Count is 8,Exact_Mass is 260.01283030,Monoisotopic_Mass is 260.01283030,Topological_Polar_Surface_Area is 101,""Unit"":""Å²"",Heavy_Atom_Count is 13,Formal_Charge is 0,Complexity is 156,Isotope_Atom_Count is 0,Defined_Atom_Stereocenter_Count is 0,Undefined_Atom_Stereocenter_Count is 0,Defined_Bond_Stereocenter_Count is 0,Undefined_Bond_Stereocenter_Count is 0,Covalently_Bonded_Unit_Count is 1,Compound_Is_Canonicalized is Yes,Physical_Description is Phorateisaclearliquidwithanobjectionableodor.Usedasaninsecticideandacaricide;itisappliedtoplantsandsoil.(EPA,1998)"",""Markup"":[{""Start"":0,""Length"":7,""URL"":""https://pubchem.ncbi.nlm.nih.gov/compound/Phorate"",""Type"":""PubChemInternalLink"",""Extra"":""CID-4790,Color/Form is Palestrawtolightbrown;colorlesstoverylightyellowliquid.,Odor is Skunk-likeodor,Boiling_Point is 257to261°Fat2mmHg(EPA,1998),Melting_Point is -45°F(EPA,1998),Flash_Point is 320°F(NIOSH,2024),Solubility is 0.005%(NIOSH,2024),Density is 1.156at77°F(EPA,1998)-Denserthanwater;willsink"",""Markup"":[{""Start"":41,""Length"":5,""URL"":""https://pubchem.ncbi.nlm.nih.gov/compound/water"",""Type"":""PubChemInternalLink"",""Extra"":""CID-962"
acetic acid,CC(=O)O,-6.69,-7.281,"cid is 13207,compound_name is Cyclohexyl methyl ketone,cid_paras is 13207,Molecular_Weight is 126.20,XLogP3 is 2,Hydrogen_Bond_Donor_Count is 0,Hydrogen_Bond_Acceptor_Count is 1,Rotatable_Bond_Count is 1,Exact_Mass is 126.104465066,Monoisotopic_Mass is 126.104465066,Topological_Polar_Surface_Area is 17.1,""Unit"":""Å²"",Heavy_Atom_Count is 9,Formal_Charge is 0,Complexity is 101,Isotope_Atom_Count is 0,Defined_Atom_Stereocenter_Count is 0,Undefined_Atom_Stereocenter_Count is 0,Defined_Bond_Stereocenter_Count is 0,Undefined_Bond_Stereocenter_Count is 0,Covalently_Bonded_Unit_Count is 1,Compound_Is_Canonicalized is Yes"
acetaldehyde,CC=O,-3.5,-3.372,"cid is 10722,compound_name is 2-Methylbenzaldehyde,cid_paras is 10722,Molecular_Weight is 120.15,XLogP3 is 2.1,Hydrogen_Bond_Donor_Count is 0,Hydrogen_Bond_Acceptor_Count is 1,Rotatable_Bond_Count is 1,Exact_Mass is 120.057514874,Monoisotopic_Mass is 120.057514874,Topological_Polar_Surface_Area is 17.1,""Unit"":""Å²"",Heavy_Atom_Count is 9,Formal_Charge is 0,Complexity is 98.7,Isotope_Atom_Count is 0,Defined_Atom_Stereocenter_Count is 0,Undefined_Atom_Stereocenter_Count is 0,Defined_Bond_Stereocenter_Count is 0,Undefined_Bond_Stereocenter_Count is 0,Covalently_Bonded_Unit_Count is 1,Compound_Is_Canonicalized is Yes,Physical_Description is O-tolualdehydeisaclearliquid.(NTP,1992)"",""Markup"":[{""Start"":0,""Length"":14,""URL"":""https://pubchem.ncbi.nlm.nih.gov/compound/O-tolualdehyde"",""Type"":""PubChemInternalLink"",""Extra"":""CID-10722,Color/Form is Liquid,Boiling_Point is 392to396°Fat760mmHg(NTP,1992),Melting_Point is <25°C,Flash_Point is 153°F(NTP,1992),Solubility is lessthan1mg/mLat68°F(NTP,1992),Density is 1.0386at66°F(NTP,1992)-Denserthanwater;willsink"",""Markup"":[{""Start"":42,""Length"":5,""URL"":""https://pubchem.ncbi.nlm.nih.gov/compound/water"",""Type"":""PubChemInternalLink"",""Extra"":""CID-962"
3-nitroaniline,c1cc(cc(c1)[N+](=O)[O-])N,-8.84,-8.204,"cid is 14282,compound_name is 4-Acetylpyridine,cid_paras is 14282,Molecular_Weight is 121.14,XLogP3 is 0.5,Hydrogen_Bond_Donor_Count is 0,Hydrogen_Bond_Acceptor_Count is 2,Rotatable_Bond_Count is 1,Exact_Mass is 121.052763847,Monoisotopic_Mass is 121.052763847,Topological_Polar_Surface_Area is 30,""Unit"":""Å²"",Heavy_Atom_Count is 9,Formal_Charge is 0,Complexity is 106,Isotope_Atom_Count is 0,Defined_Atom_Stereocenter_Count is 0,Undefined_Atom_Stereocenter_Count is 0,Defined_Bond_Stereocenter_Count is 0,Undefined_Bond_Stereocenter_Count is 0,Covalently_Bonded_Unit_Count is 1,Compound_Is_Canonicalized is Yes,Physical_Description is 4-acetylpyridineisadarkamberliquid.(NTP,1992)"",""Markup"":[{""Start"":0,""Length"":16,""URL"":""https://pubchem.ncbi.nlm.nih.gov/compound/4-acetylpyridine"",""Type"":""PubChemInternalLink"",""Extra"":""CID-14282,Boiling_Point is 414°Fat760mmHg(NTP,1992),Flash_Point is greaterthan200°F(NTP,1992),Solubility is greaterthanorequalto100mg/mLat66°F(NTP,1992),Density is 1.111at74.1°F(NTP,1992)-Denserthanwater;willsink"",""Markup"":[{""Start"":43,""Length"":5,""URL"":""https://pubchem.ncbi.nlm.nih.gov/compound/water"",""Type"":""PubChemInternalLink"",""Extra"":""CID-962"
hex-1-yne,CCCCC#C,0.29,0.553,"cid is 10326,compound_name is Indan,cid_paras is 10326,Molecular_Weight is 118.18,XLogP3 is 3.2,Hydrogen_Bond_Donor_Count is 0,Hydrogen_Bond_Acceptor_Count is 0,Rotatable_Bond_Count is 0,Exact_Mass is 118.078250319,Monoisotopic_Mass is 118.078250319,Topological_Polar_Surface_Area is 0,""Unit"":""Å²"",Heavy_Atom_Count is 9,Formal_Charge is 0,Complexity is 84.2,Isotope_Atom_Count is 0,Defined_Atom_Stereocenter_Count is 0,Undefined_Atom_Stereocenter_Count is 0,Defined_Bond_Stereocenter_Count is 0,Undefined_Bond_Stereocenter_Count is 0,Covalently_Bonded_Unit_Count is 1,Compound_Is_Canonicalized is Yes,Physical_Description is Liquid;[MerckIndex]Clearlightyellowliquid;[Sigma-AldrichMSDS]"
2-methoxyaniline,COc1ccccc1N,-6.12,-6.771,"cid is 180,compound_name is Acetone,cid_paras is 180,Molecular_Weight is 58.08,XLogP3 is -0.1,Hydrogen_Bond_Donor_Count is 0,Hydrogen_Bond_Acceptor_Count is 1,Rotatable_Bond_Count is 0,Exact_Mass is 58.041864811,Monoisotopic_Mass is 58.041864811,Topological_Polar_Surface_Area is 17.1,""Unit"":""Å²"",Heavy_Atom_Count is 4,Formal_Charge is 0,Complexity is 26.3,Isotope_Atom_Count is 0,Defined_Atom_Stereocenter_Count is 0,Undefined_Atom_Stereocenter_Count is 0,Defined_Bond_Stereocenter_Count is 0,Undefined_Bond_Stereocenter_Count is 0,Covalently_Bonded_Unit_Count is 1,Compound_Is_Canonicalized is Yes,Physical_Description is Acetoneappearsasaclearcolorlessliquidwithasweetishodor.Flashpoint0°F.Lessdensethanwater.Vaporsareheavierthanair.Usedasasolventinpaintandnailpolishremovers."",""Markup"":[{""Start"":0,""Length"":7,""URL"":""https://pubchem.ncbi.nlm.nih.gov/compound/Acetone"",""Type"":""PubChemInternalLink"",""Extra"":""CID-180"",Color/Form is Colorlessvolatileliquid,Odor is Fruityodor,Boiling_Point is 133°Fat760mmHg(NTP,1992),Melting_Point is -137°F(NTP,1992),Flash_Point is 0°F(NTP,1992),Solubility is greaterthanorequalto100mg/mLat72°F(NTP,1992),Density is 0.791at68°F(USCG,1999)-Lessdensethanwater;willfloat"",""Markup"":[{""Start"":46,""Length"":5,""URL"":""https://pubchem.ncbi.nlm.nih.gov/compound/water"",""Type"":""PubChemInternalLink"",""Extra"":""CID-962"
phenol,c1ccc(cc1)O,-6.6,-5.707,"cid is 8255,compound_name is Isobutylene,cid_paras is 8255,Molecular_Weight is 56.11,XLogP3 is 2.1,Hydrogen_Bond_Donor_Count is 0,Hydrogen_Bond_Acceptor_Count is 0,Rotatable_Bond_Count is 0,Exact_Mass is 56.062600255,Monoisotopic_Mass is 56.062600255,Topological_Polar_Surface_Area is 0,""Unit"":""Å²"",Heavy_Atom_Count is 4,Formal_Charge is 0,Complexity is 23,Isotope_Atom_Count is 0,Defined_Atom_Stereocenter_Count is 0,Undefined_Atom_Stereocenter_Count is 0,Defined_Bond_Stereocenter_Count is 0,Undefined_Bond_Stereocenter_Count is 0,Covalently_Bonded_Unit_Count is 1,Compound_Is_Canonicalized is Yes,Physical_Description is Isobutyleneisacolorlessgaswithafaintpetroleum-likeodor.Fortransportationitmaybestenched.Itisshippedasaliquefiedgasunderitsownvaporpressure.Contactwiththeliquidcancausefrostbite.Itiseasilyignited.Itsvaporsareheavierthanairandaflamecanflashbacktothesourceofleakveryeasily.Theleakcaneitherbealiquidorvaporleak.Itcanasphyxiatebythedisplacementofair.Underprolongedexposuretofireorheatthecontainersmayruptureviolentlyandrocket.Itisusedintheproductionofisooctane,ahighoctaneaviationgasoline."",""Markup"":[{""Start"":0,""Length"":11,""URL"":""https://pubchem.ncbi.nlm.nih.gov/compound/Isobutylene"",""Type"":""PubChemInternalLink"",""Extra"":""CID-8255"",Color/Form is Colorlessgas,Odor is Coalgasodor,Boiling_Point is 19.6°Fat760mmHg(NTP,1992),Melting_Point is -220.5°F(NTP,1992),Flash_Point is -105°F(NTP,1992),Solubility is Insoluble(NTP,1992),Density is 0.59at68°F(USCG,1999)-Lessdensethanwater;willfloat"",""Markup"":[{""Start"":45,""Length"":5,""URL"":""https://pubchem.ncbi.nlm.nih.gov/compound/water"",""Type"":""PubChemInternalLink"",""Extra"":""CID-962"
propanenitrile,CCC#N,-3.84,-2.491,"cid is 10326,compound_name is Indan,cid_paras is 10326,Molecular_Weight is 118.18,XLogP3 is 3.2,Hydrogen_Bond_Donor_Count is 0,Hydrogen_Bond_Acceptor_Count is 0,Rotatable_Bond_Count is 0,Exact_Mass is 118.078250319,Monoisotopic_Mass is 118.078250319,Topological_Polar_Surface_Area is 0,""Unit"":""Å²"",Heavy_Atom_Count is 9,Formal_Charge is 0,Complexity is 84.2,Isotope_Atom_Count is 0,Defined_Atom_Stereocenter_Count is 0,Undefined_Atom_Stereocenter_Count is 0,Defined_Bond_Stereocenter_Count is 0,Undefined_Bond_Stereocenter_Count is 0,Covalently_Bonded_Unit_Count is 1,Compound_Is_Canonicalized is Yes,Physical_Description is Liquid;[MerckIndex]Clearlightyellowliquid;[Sigma-AldrichMSDS]"
naphthalen-1-ol,c1ccc2c(c1)cccc2O,-7.67,-7.137,"cid is 220639,compound_name is 1-Nitropentane,cid_paras is 220639,Molecular_Weight is 117.15,XLogP3 is 2,Hydrogen_Bond_Donor_Count is 0,Hydrogen_Bond_Acceptor_Count is 2,Rotatable_Bond_Count is 3,Exact_Mass is 117.078978594,Monoisotopic_Mass is 117.078978594,Topological_Polar_Surface_Area is 45.8,""Unit"":""Å²"",Heavy_Atom_Count is 8,Formal_Charge is 0,Complexity is 67.3,Isotope_Atom_Count is 0,Defined_Atom_Stereocenter_Count is 0,Undefined_Atom_Stereocenter_Count is 0,Defined_Bond_Stereocenter_Count is 0,Undefined_Bond_Stereocenter_Count is 0,Covalently_Bonded_Unit_Count is 1,Compound_Is_Canonicalized is Yes"
butyl acetate,CCCCOC(=O)C,-2.64,-3.406,"cid is 138975,compound_name is N,N-Dimethyl-4-nitrobenzamide,cid_paras is 138975,Molecular_Weight is 194.19,XLogP3 is 0.8,Hydrogen_Bond_Donor_Count is 0,Hydrogen_Bond_Acceptor_Count is 3,Rotatable_Bond_Count is 1,Exact_Mass is 194.06914219,Monoisotopic_Mass is 194.06914219,Topological_Polar_Surface_Area is 66.1,""Unit"":""Å²"",Heavy_Atom_Count is 14,Formal_Charge is 0,Complexity is 227,Isotope_Atom_Count is 0,Defined_Atom_Stereocenter_Count is 0,Undefined_Atom_Stereocenter_Count is 0,Defined_Bond_Stereocenter_Count is 0,Undefined_Bond_Stereocenter_Count is 0,Covalently_Bonded_Unit_Count is 1,Compound_Is_Canonicalized is Yes"
aldicarb,CC(C)(/C=N\OC(=O)NC)SC,-9.84,-9.679,"cid is 10326,compound_name is Indan,cid_paras is 10326,Molecular_Weight is 118.18,XLogP3 is 3.2,Hydrogen_Bond_Donor_Count is 0,Hydrogen_Bond_Acceptor_Count is 0,Rotatable_Bond_Count is 0,Exact_Mass is 118.078250319,Monoisotopic_Mass is 118.078250319,Topological_Polar_Surface_Area is 0,""Unit"":""Å²"",Heavy_Atom_Count is 9,Formal_Charge is 0,Complexity is 84.2,Isotope_Atom_Count is 0,Defined_Atom_Stereocenter_Count is 0,Undefined_Atom_Stereocenter_Count is 0,Defined_Bond_Stereocenter_Count is 0,Undefined_Bond_Stereocenter_Count is 0,Covalently_Bonded_Unit_Count is 1,Compound_Is_Canonicalized is Yes,Physical_Description is Liquid;[MerckIndex]Clearlightyellowliquid;[Sigma-AldrichMSDS]"
o-cresol,Cc1ccccc1O,-5.9,-5.076,"cid is 356,compound_name is Octane,cid_paras is 356,Molecular_Weight is 114.23,XLogP3 is 3.9,Hydrogen_Bond_Donor_Count is 0,Hydrogen_Bond_Acceptor_Count is 0,Rotatable_Bond_Count is 5,Exact_Mass is 114.140850574,Monoisotopic_Mass is 114.140850574,Topological_Polar_Surface_Area is 0,""Unit"":""Å²"",Heavy_Atom_Count is 8,Formal_Charge is 0,Complexity is 25,Isotope_Atom_Count is 0,Defined_Atom_Stereocenter_Count is 0,Undefined_Atom_Stereocenter_Count is 0,Defined_Bond_Stereocenter_Count is 0,Undefined_Bond_Stereocenter_Count is 0,Covalently_Bonded_Unit_Count is 1,Compound_Is_Canonicalized is Yes,Physical_Description is N-octaneisacolorlessliquidwithanodorofgasoline.Lessdensethanwaterandinsolubleinwater.Hencefloatsonwater.Producesirritatingvapor."",""Markup"":[{""Start"":0,""Length"":8,""URL"":""https://pubchem.ncbi.nlm.nih.gov/compound/N-octane"",""Type"":""PubChemInternalLink"",""Extra"":""CID-356"",Color/Form is Colorlessliquid,Odor is Gasoline-like,Boiling_Point is 258.1°Fat760mmHg(USCG,1999),Melting_Point is -70.2°F(USCG,1999),Flash_Point is 56°F(USCG,1999),Solubility is 7e-05%at77°F(NIOSH,2024),Density is 0.703at68°F(USCG,1999)-Lessdensethanwater;willfloat"",""Markup"":[{""Start"":46,""Length"":5,""URL"":""https://pubchem.ncbi.nlm.nih.gov/compound/water"",""Type"":""PubChemInternalLink"",""Extra"":""CID-962"
2-methylpropanal,CC(C)C=O,-2.86,-2.968,"cid is 5569,compound_name is Trifluralin,cid_paras is 5569,Molecular_Weight is 335.28,XLogP3 is 5.3,Hydrogen_Bond_Donor_Count is 0,Hydrogen_Bond_Acceptor_Count is 8,Rotatable_Bond_Count is 5,Exact_Mass is 335.10929049,Monoisotopic_Mass is 335.10929049,Topological_Polar_Surface_Area is 94.9,""Unit"":""Å²"",Heavy_Atom_Count is 23,Formal_Charge is 0,Complexity is 392,Isotope_Atom_Count is 0,Defined_Atom_Stereocenter_Count is 0,Undefined_Atom_Stereocenter_Count is 0,Defined_Bond_Stereocenter_Count is 0,Undefined_Bond_Stereocenter_Count is 0,Covalently_Bonded_Unit_Count is 1,Compound_Is_Canonicalized is Yes,Physical_Description is Trifluralinisayellow-orangecrystallinesolid.Denserthanwaterandnotsolubleinwater.Hencesinksinwater.Meltingpoint48.5-49°C.Usedasaselectivepre-emergenceherbicide."",""Markup"":[{""Start"":0,""Length"":11,""URL"":""https://pubchem.ncbi.nlm.nih.gov/compound/Trifluralin"",""Type"":""PubChemInternalLink"",""Extra"":""CID-5569"",Color/Form is Yellowcrystals,Odor is Noappreciableodor,Boiling_Point is Decomposes(NTP,1992),Melting_Point is 115to117°F(NTP,1992),Flash_Point is greaterthan185°F(NTP,1992),Solubility is lessthan0.1mg/mLat72.5°F(NTP,1992),Density is 1.294at77°F(USCG,1999)-Denserthanwater;willsink"",""Markup"":[{""Start"":42,""Length"":5,""URL"":""https://pubchem.ncbi.nlm.nih.gov/compound/water"",""Type"":""PubChemInternalLink"",""Extra"":""CID-962"
propionamide,CCC(=O)N,-9.4,-8.31,"cid is 442474,compound_name is Linalyl acetate, (-)-,cid_paras is 442474,Molecular_Weight is 196.29,XLogP3 is 3.3,Hydrogen_Bond_Donor_Count is 0,Hydrogen_Bond_Acceptor_Count is 2,Rotatable_Bond_Count is 6,Exact_Mass is 196.146329876,Monoisotopic_Mass is 196.146329876,Topological_Polar_Surface_Area is 26.3,""Unit"":""Å²"",Heavy_Atom_Count is 14,Formal_Charge is 0,Complexity is 237,Isotope_Atom_Count is 0,Defined_Atom_Stereocenter_Count is 1,Undefined_Atom_Stereocenter_Count is 0,Defined_Bond_Stereocenter_Count is 0,Undefined_Bond_Stereocenter_Count is 0,Covalently_Bonded_Unit_Count is 1,Compound_Is_Canonicalized is Yes"
1-bromopropane,CCCBr,-0.56,0.579,"cid is 7914,compound_name is Diisopropyl ether,cid_paras is 7914,Molecular_Weight is 102.17,XLogP3 is 1.5,Hydrogen_Bond_Donor_Count is 0,Hydrogen_Bond_Acceptor_Count is 1,Rotatable_Bond_Count is 2,Exact_Mass is 102.104465066,Monoisotopic_Mass is 102.104465066,Topological_Polar_Surface_Area is 9.2,""Unit"":""Å²"",Heavy_Atom_Count is 7,Formal_Charge is 0,Complexity is 33.4,Isotope_Atom_Count is 0,Defined_Atom_Stereocenter_Count is 0,Undefined_Atom_Stereocenter_Count is 0,Defined_Bond_Stereocenter_Count is 0,Undefined_Bond_Stereocenter_Count is 0,Covalently_Bonded_Unit_Count is 1,Compound_Is_Canonicalized is Yes,Physical_Description is Diisopropyletherappearsasaclearcolorlessliquidwithanetherealodor.Flashpoint-18°F.Lessdensethanwater.Vaporsheavierthanair."",""Markup"":[{""Start"":0,""Length"":17,""URL"":""https://pubchem.ncbi.nlm.nih.gov/compound/Diisopropyl%20ether"",""Type"":""PubChemInternalLink"",""Extra"":""CID-7914"",Color/Form is Colorlessvolatileliquid,Odor is Sweet,slightlysharp,pungentlikecamphorandethylether"",""Markup"":[{""Start"":36,""Length"":7,""URL"":""https://pubchem.ncbi.nlm.nih.gov/compound/camphor"",""Type"":""PubChemInternalLink"",""Extra"":""CID-2537"",Boiling_Point is 156°Fat760mmHg(USCG,1999),Melting_Point is -123°F(USCG,1999),Flash_Point is -18°F(USCG,1999),Solubility is 0.2%(NIOSH,2024),Density is 0.724at68°F(USCG,1999)-Lessdensethanwater;willfloat"",""Markup"":[{""Start"":46,""Length"":5,""URL"":""https://pubchem.ncbi.nlm.nih.gov/compound/water"",""Type"":""PubChemInternalLink"",""Extra"":""CID-962"