iupac,smiles,expt,calc,Description
terbacil,Cc1c(c(=O)n(c(=O)[nH]1)C(C)(C)C)Cl,-11.14,-13.769,"cid is 61362,compound_name is d-Piperitone,cid_paras is 61362,Molecular_Weight is 152.23,XLogP3 is 2.2,Hydrogen_Bond_Donor_Count is 0,Hydrogen_Bond_Acceptor_Count is 1,Rotatable_Bond_Count is 1,Exact_Mass is 152.120115130,Monoisotopic_Mass is 152.120115130,Topological_Polar_Surface_Area is 17.1,""Unit"":""Å²"",Heavy_Atom_Count is 11,Formal_Charge is 0,Complexity is 189,Isotope_Atom_Count is 0,Defined_Atom_Stereocenter_Count is 1,Undefined_Atom_Stereocenter_Count is 0,Defined_Bond_Stereocenter_Count is 0,Undefined_Bond_Stereocenter_Count is 0,Covalently_Bonded_Unit_Count is 1,Compound_Is_Canonicalized is Yes,Physical_Description is Liquid,Boiling_Point is 233.00to235.00°C.@760.00mmHg,Melting_Point is -29°C,Solubility is insolubleinwater;solubleinalcohol"",""Markup"":[{""Start"":13,""Length"":5,""URL"":""https://pubchem.ncbi.nlm.nih.gov/compound/water"",""Type"":""PubChemInternalLink"",""Extra"":""CID-962,Density is 0.929-0.934"
"2,2,5-trimethylhexane",CC(C)CCC(C)(C)C,2.93,2.97,"cid is 3776,compound_name is Isopropyl Alcohol,cid_paras is 3776,Molecular_Weight is 60.10,XLogP3 is 0.3,Hydrogen_Bond_Donor_Count is 1,Hydrogen_Bond_Acceptor_Count is 1,Rotatable_Bond_Count is 0,Exact_Mass is 60.057514874,Monoisotopic_Mass is 60.057514874,Topological_Polar_Surface_Area is 20.2,""Unit"":""Å²"",Heavy_Atom_Count is 4,Formal_Charge is 0,Complexity is 10.8,Isotope_Atom_Count is 0,Defined_Atom_Stereocenter_Count is 0,Undefined_Atom_Stereocenter_Count is 0,Defined_Bond_Stereocenter_Count is 0,Undefined_Bond_Stereocenter_Count is 0,Covalently_Bonded_Unit_Count is 1,Compound_Is_Canonicalized is Yes,Physical_Description is Volatile,colorlessliquidwithasharpmustyodorlikerubbingalcohol.Flashpointof53°F.Vaporsareheavierthanairandmildlyirritatingtotheeyes,nose,andthroat.Densityapproximately6.5lb/gal.Usedinmakingcosmetics,skinandhairpreparations,pharmaceuticals,perfumes,lacquerformulations,dyesolutions,antifreezes,soaps,windowcleaners.Soldin70%aqueoussolutionasrubbingalcohol.,Color/Form is Colorlessliquid,Odor is Pleasantodor,Boiling_Point is 180.5°Fat760mmHg(NTP,1992),Melting_Point is -127.3°F(NTP,1992),Flash_Point is 53°F(NTP,1992),Solubility is greaterthanorequalto100mg/mLat72°F(NTP,1992),Density is 0.785at68°F(USCG,1999)-Lessdensethanwater;willfloat"",""Markup"":[{""Start"":46,""Length"":5,""URL"":""https://pubchem.ncbi.nlm.nih.gov/compound/water"",""Type"":""PubChemInternalLink"",""Extra"":""CID-962"
2-butoxyethanol,CCCCOCCO,-6.25,-3.85,"cid is 8102,compound_name is Hexylamine,cid_paras is 8102,Molecular_Weight is 101.19,XLogP3 is 2.1,Hydrogen_Bond_Donor_Count is 1,Hydrogen_Bond_Acceptor_Count is 1,Rotatable_Bond_Count is 4,Exact_Mass is 101.120449483,Monoisotopic_Mass is 101.120449483,Topological_Polar_Surface_Area is 26,""Unit"":""Å²"",Heavy_Atom_Count is 7,Formal_Charge is 0,Complexity is 27.4,Isotope_Atom_Count is 0,Defined_Atom_Stereocenter_Count is 0,Undefined_Atom_Stereocenter_Count is 0,Defined_Bond_Stereocenter_Count is 0,Undefined_Bond_Stereocenter_Count is 0,Covalently_Bonded_Unit_Count is 1,Compound_Is_Canonicalized is Yes,Physical_Description is Hexylamineappearsasawater-whiteliquidwithanamine-likeodor.Lessdensethanwaterandpoorlysolubleinwater.Hencefloatsonwater.Maybetoxicbyinhalation,ingestionorskinabsorption."",""Markup"":[{""Start"":0,""Length"":10,""URL"":""https://pubchem.ncbi.nlm.nih.gov/compound/Hexylamine"",""Type"":""PubChemInternalLink"",""Extra"":""CID-8102"",Color/Form is Water-whiteliquid,Odor is Fishyaroma,Boiling_Point is 132°C,Melting_Point is -21°C,Flash_Point is 85°F(NFPA,2010),Solubility is Inwater,12,000mg/Lat20-25°C"",""Markup"":[{""Start"":3,""Length"":5,""URL"":""https://pubchem.ncbi.nlm.nih.gov/compound/water"",""Type"":""PubChemInternalLink"",""Extra"":""CID-962,Density is 0.7660g/cucmat20°C"
endrin,C1[C@@H]2[C@H]3[C@@H]([C@H]1[C@H]4[C@@H]2O4)[C@@]5(C(=C([C@]3(C5(Cl)Cl)Cl)Cl)Cl)Cl,-4.82,-5.179,"cid is 96257,compound_name is Trimethylene dinitrate,cid_paras is 96257,Molecular_Weight is 166.09,XLogP3 is 1.1,Hydrogen_Bond_Donor_Count is 0,Hydrogen_Bond_Acceptor_Count is 6,Rotatable_Bond_Count is 4,Exact_Mass is 166.02258592,Monoisotopic_Mass is 166.02258592,Topological_Polar_Surface_Area is 110,""Unit"":""Å²"",Heavy_Atom_Count is 11,Formal_Charge is 0,Complexity is 120,Isotope_Atom_Count is 0,Defined_Atom_Stereocenter_Count is 0,Undefined_Atom_Stereocenter_Count is 0,Defined_Bond_Stereocenter_Count is 0,Undefined_Bond_Stereocenter_Count is 0,Covalently_Bonded_Unit_Count is 1,Compound_Is_Canonicalized is Yes"
benzamide,c1ccc(cc1)C(=O)N,-11.0,-10.412,"cid is 7771,compound_name is 2,4-Dimethylphenol,cid_paras is 7771,Molecular_Weight is 122.16,XLogP3 is 2.3,Hydrogen_Bond_Donor_Count is 1,Hydrogen_Bond_Acceptor_Count is 1,Rotatable_Bond_Count is 0,Exact_Mass is 122.073164938,Monoisotopic_Mass is 122.073164938,Topological_Polar_Surface_Area is 20.2,""Unit"":""Å²"",Heavy_Atom_Count is 9,Formal_Charge is 0,Complexity is 90.6,Isotope_Atom_Count is 0,Defined_Atom_Stereocenter_Count is 0,Undefined_Atom_Stereocenter_Count is 0,Defined_Bond_Stereocenter_Count is 0,Undefined_Bond_Stereocenter_Count is 0,Covalently_Bonded_Unit_Count is 1,Compound_Is_Canonicalized is Yes,Physical_Description is 2,4-dimethylphenolappearsascolorlesscrystalsorclear,darkamberliquid."",""Markup"":[{""Start"":0,""Length"":18,""URL"":""https://pubchem.ncbi.nlm.nih.gov/compound/2%2C4-dimethylphenol"",""Type"":""PubChemInternalLink"",""Extra"":""CID-7771,Color/Form is Crystals,Boiling_Point is 414°Fat766mmHg(NTP,1992),Melting_Point is 72to73°F(NTP,1992),Flash_Point is greaterthan235°F(NTP,1992),Solubility is lessthan1mg/mLat64°F(NTP,1992),Density is 1.0276at57°F(NTP,1992)-Denserthanwater;willsink"",""Markup"":[{""Start"":42,""Length"":5,""URL"":""https://pubchem.ncbi.nlm.nih.gov/compound/water"",""Type"":""PubChemInternalLink"",""Extra"":""CID-962"
2-nitropropane,CC(C)[N+](=O)[O-],-3.13,-1.741,"cid is 6276,compound_name is 1-Pentanol,cid_paras is 6276,Molecular_Weight is 88.15,XLogP3 is 1.6,Hydrogen_Bond_Donor_Count is 1,Hydrogen_Bond_Acceptor_Count is 1,Rotatable_Bond_Count is 3,Exact_Mass is 88.088815002,Monoisotopic_Mass is 88.088815002,Topological_Polar_Surface_Area is 20.2,""Unit"":""Å²"",Heavy_Atom_Count is 6,Formal_Charge is 0,Complexity is 19.9,Isotope_Atom_Count is 0,Defined_Atom_Stereocenter_Count is 0,Undefined_Atom_Stereocenter_Count is 0,Defined_Bond_Stereocenter_Count is 0,Undefined_Bond_Stereocenter_Count is 0,Covalently_Bonded_Unit_Count is 1,Compound_Is_Canonicalized is Yes,Physical_Description is N-pentanolappearsasacolorlessliquidwithamildtomoderatelystrongodor.Lessdensethanwater.Flashpoint91°F.Boilingpoint280°F.Vaporsheavierthanair.Moderatelytoxicbyingestion.Vaporsmayirritateskinandeyes.Usedasasolventandtomakeotherchemicals."",""Markup"":[{""Start"":0,""Length"":10,""URL"":""https://pubchem.ncbi.nlm.nih.gov/compound/N-pentanol"",""Type"":""PubChemInternalLink"",""Extra"":""CID-6276"",Color/Form is Colorlessliquid,Odor is CHARACTERISTICFUSEL-LIKEODOR,Boiling_Point is 280°Fat760mmHg(NTP,1992),Melting_Point is -110°F(NTP,1992),Flash_Point is 91°F(NTP,1992),Solubility is 10to50mg/mLat63°F(NTP,1992),Density is 0.818at59°F(USCG,1999)-Lessdensethanwater;willfloat"",""Markup"":[{""Start"":46,""Length"":5,""URL"":""https://pubchem.ncbi.nlm.nih.gov/compound/water"",""Type"":""PubChemInternalLink"",""Extra"":""CID-962"
glycerol,C(C(CO)O)O,-13.43,-10.14,"cid is 7014876,compound_name is (R)-(-)-2-Pentanol,cid_paras is 7014876,Molecular_Weight is 88.15,XLogP3 is 1.2,Hydrogen_Bond_Donor_Count is 1,Hydrogen_Bond_Acceptor_Count is 1,Rotatable_Bond_Count is 2,Exact_Mass is 88.088815002,Monoisotopic_Mass is 88.088815002,Topological_Polar_Surface_Area is 20.2,""Unit"":""Å²"",Heavy_Atom_Count is 6,Formal_Charge is 0,Complexity is 27.1,Isotope_Atom_Count is 0,Defined_Atom_Stereocenter_Count is 1,Undefined_Atom_Stereocenter_Count is 0,Defined_Bond_Stereocenter_Count is 0,Undefined_Bond_Stereocenter_Count is 0,Covalently_Bonded_Unit_Count is 1,Compound_Is_Canonicalized is Yes"
1-iodopropane,CCCI,-0.53,-0.443,"cid is 12263095,compound_name is (S)-3-Methylheptane,cid_paras is 12263095,Molecular_Weight is 114.23,XLogP3 is 4.3,Hydrogen_Bond_Donor_Count is 0,Hydrogen_Bond_Acceptor_Count is 0,Rotatable_Bond_Count is 4,Exact_Mass is 114.140850574,Monoisotopic_Mass is 114.140850574,Topological_Polar_Surface_Area is 0,""Unit"":""Å²"",Heavy_Atom_Count is 8,Formal_Charge is 0,Complexity is 39.3,Isotope_Atom_Count is 0,Defined_Atom_Stereocenter_Count is 1,Undefined_Atom_Stereocenter_Count is 0,Defined_Bond_Stereocenter_Count is 0,Undefined_Bond_Stereocenter_Count is 0,Covalently_Bonded_Unit_Count is 1,Compound_Is_Canonicalized is Yes"
2-methoxyethanamine,COCCN,-6.55,-5.027,"cid is 39912,compound_name is Dexibuprofen,cid_paras is 39912,Molecular_Weight is 206.28,XLogP3 is 3.5,Hydrogen_Bond_Donor_Count is 1,Hydrogen_Bond_Acceptor_Count is 2,Rotatable_Bond_Count is 4,Exact_Mass is 206.130679813,Monoisotopic_Mass is 206.130679813,Topological_Polar_Surface_Area is 37.3,""Unit"":""Å²"",Heavy_Atom_Count is 15,Formal_Charge is 0,Complexity is 203,Isotope_Atom_Count is 0,Defined_Atom_Stereocenter_Count is 1,Undefined_Atom_Stereocenter_Count is 0,Defined_Bond_Stereocenter_Count is 0,Undefined_Bond_Stereocenter_Count is 0,Covalently_Bonded_Unit_Count is 1,Compound_Is_Canonicalized is Yes,Melting_Point is 49-53,Solubility is Insoluble"
"1,1,1,2-tetrachloroethane",C(C(Cl)(Cl)Cl)Cl,-1.43,-0.091,"cid is 12358970,compound_name is (r)-Malathion,cid_paras is 12358970,Molecular_Weight is 330.4,XLogP3 is 2.4,Hydrogen_Bond_Donor_Count is 0,Hydrogen_Bond_Acceptor_Count is 8,Rotatable_Bond_Count is 11,Exact_Mass is 330.03606767,Monoisotopic_Mass is 330.03606767,Topological_Polar_Surface_Area is 128,""Unit"":""Å²"",Heavy_Atom_Count is 19,Formal_Charge is 0,Complexity is 341,Isotope_Atom_Count is 0,Defined_Atom_Stereocenter_Count is 1,Undefined_Atom_Stereocenter_Count is 0,Defined_Bond_Stereocenter_Count is 0,Undefined_Bond_Stereocenter_Count is 0,Covalently_Bonded_Unit_Count is 1,Compound_Is_Canonicalized is Yes"
methyl propanoate,CCC(=O)OC,-2.93,-3.652,"cid is 7249,compound_name is 3,4-Dimethylphenol,cid_paras is 7249,Molecular_Weight is 122.16,XLogP3 is 2.2,Hydrogen_Bond_Donor_Count is 1,Hydrogen_Bond_Acceptor_Count is 1,Rotatable_Bond_Count is 0,Exact_Mass is 122.073164938,Monoisotopic_Mass is 122.073164938,Topological_Polar_Surface_Area is 20.2,""Unit"":""Å²"",Heavy_Atom_Count is 9,Formal_Charge is 0,Complexity is 90.6,Isotope_Atom_Count is 0,Defined_Atom_Stereocenter_Count is 0,Undefined_Atom_Stereocenter_Count is 0,Defined_Bond_Stereocenter_Count is 0,Undefined_Bond_Stereocenter_Count is 0,Covalently_Bonded_Unit_Count is 1,Compound_Is_Canonicalized is Yes,Physical_Description is 3,4-dimethylphenolappearsascolorlesstolighttancrystallinepowderorsolid.Odorthreshold1.2mg/L.Tastethreshold0.05mg/L.(NTP,1992)"",""Markup"":[{""Start"":0,""Length"":18,""URL"":""https://pubchem.ncbi.nlm.nih.gov/compound/3%2C4-dimethylphenol"",""Type"":""PubChemInternalLink"",""Extra"":""CID-7249,Color/Form is Needlesfromwater,Boiling_Point is 437°Fat760mmHg(NTP,1992),Melting_Point is 144.5°F(NTP,1992),Solubility is lessthan1mg/mLat68°F(NTP,1992),Density is 0.983at68°F(NTP,1992)-Lessdensethanwater;willfloat"",""Markup"":[{""Start"":45,""Length"":5,""URL"":""https://pubchem.ncbi.nlm.nih.gov/compound/water"",""Type"":""PubChemInternalLink"",""Extra"":""CID-962"
cyclopentane,C1CCCC1,1.2,1.648,"cid is 1732,compound_name is 4-Chloro-3-methylphenol,cid_paras is 1732,Molecular_Weight is 142.58,XLogP3 is 3.1,Hydrogen_Bond_Donor_Count is 1,Hydrogen_Bond_Acceptor_Count is 1,Rotatable_Bond_Count is 0,Exact_Mass is 142.0185425,Monoisotopic_Mass is 142.0185425,Topological_Polar_Surface_Area is 20.2,""Unit"":""Å²"",Heavy_Atom_Count is 9,Formal_Charge is 0,Complexity is 94.9,Isotope_Atom_Count is 0,Defined_Atom_Stereocenter_Count is 0,Undefined_Atom_Stereocenter_Count is 0,Defined_Bond_Stereocenter_Count is 0,Undefined_Bond_Stereocenter_Count is 0,Covalently_Bonded_Unit_Count is 1,Compound_Is_Canonicalized is Yes,Physical_Description is Chlorocresolappearsasapinkishtowhitecrystallinesolidwithaphenolicodor.Meltingpoint64-66°C.Shippedasasolidorinaliquidcarrier.Solubleinaqueousbase.Toxicbyingestion,inhalationorskinabsorption.Usedasanexternalgermicide.Usedasapreservativeinpaintsandinks."",""Markup"":[{""Start"":0,""Length"":12,""URL"":""https://pubchem.ncbi.nlm.nih.gov/compound/Chlorocresol"",""Type"":""PubChemInternalLink"",""Extra"":""CID-1732,Color/Form is Dimorphouscrystals...aqueoussolutionsturnyellowonexposuretolightandair,Odor is Saidtobeodorlesswhenverypure,butusuallyaphenolicodorpersists,Boiling_Point is 455°Fat760mmHg(NTP,1992),Melting_Point is 151°F(NTP,1992),Flash_Point is 230°F(NTP,1992),Solubility is lessthan1mg/mLat68°F(NTP,1992),Density is 0.9at77°F(NTP,1992)-Lessdensethanwater;willfloat"",""Markup"":[{""Start"":43,""Length"":5,""URL"":""https://pubchem.ncbi.nlm.nih.gov/compound/water"",""Type"":""PubChemInternalLink"",""Extra"":""CID-962"
3-ethylpyridine,CCc1cccnc1,-4.59,-2.965,"cid is 8114,compound_name is Dipropyl ether,cid_paras is 8114,Molecular_Weight is 102.17,XLogP3 is 2,Hydrogen_Bond_Donor_Count is 0,Hydrogen_Bond_Acceptor_Count is 1,Rotatable_Bond_Count is 4,Exact_Mass is 102.104465066,Monoisotopic_Mass is 102.104465066,Topological_Polar_Surface_Area is 9.2,""Unit"":""Å²"",Heavy_Atom_Count is 7,Formal_Charge is 0,Complexity is 23.4,Isotope_Atom_Count is 0,Defined_Atom_Stereocenter_Count is 0,Undefined_Atom_Stereocenter_Count is 0,Defined_Bond_Stereocenter_Count is 0,Undefined_Bond_Stereocenter_Count is 0,Covalently_Bonded_Unit_Count is 1,Compound_Is_Canonicalized is Yes,Physical_Description is Di-n-propyletherappearsasacolorlessliquidwithastrongodor.Lessdensethanwaterandslightlysolubleinwater.Vaporsareheavierthanair.Inhighconcentrationsthevaporsmaybenarcotic."",""Markup"":[{""Start"":0,""Length"":17,""URL"":""https://pubchem.ncbi.nlm.nih.gov/compound/Di-n-propyl%20ether"",""Type"":""PubChemInternalLink"",""Extra"":""CID-8114"",Color/Form is Mobileliquid,Boiling_Point is 89-91°C,Melting_Point is -122°C,Flash_Point is 70°F(NFPA,2010),Solubility is Solubleinalcohol,ether,Density is 0.7466at20°C/4°C"
"3,5-dimethylpyridine",Cc1cc(cnc1)C,-4.84,-2.869,"cid is 16666,compound_name is l-Menthol,cid_paras is 16666,Molecular_Weight is 156.26,XLogP3 is 3,Hydrogen_Bond_Donor_Count is 1,Hydrogen_Bond_Acceptor_Count is 1,Rotatable_Bond_Count is 1,Exact_Mass is 156.151415257,Monoisotopic_Mass is 156.151415257,Topological_Polar_Surface_Area is 20.2,""Unit"":""Å²"",Heavy_Atom_Count is 11,Formal_Charge is 0,Complexity is 120,Isotope_Atom_Count is 0,Defined_Atom_Stereocenter_Count is 3,Undefined_Atom_Stereocenter_Count is 0,Defined_Bond_Stereocenter_Count is 0,Undefined_Bond_Stereocenter_Count is 0,Covalently_Bonded_Unit_Count is 1,Compound_Is_Canonicalized is Yes,Physical_Description is D,l-mentholisawhitecrystallinesolidwithapeppermintodorandtaste.(NTP,1992)"",""Markup"":[{""Start"":0,""Length"":11,""URL"":""https://pubchem.ncbi.nlm.nih.gov/compound/D%2Cl-menthol"",""Type"":""PubChemInternalLink"",""Extra"":""CID-16666,Color/Form is Crystalsorgranules,Odor is Peppermintodor,Boiling_Point is 421°Fat760mmHg(NTP,1992),Melting_Point is 100°F(NTP,1992),Flash_Point is 196°F(NTP,1992),Solubility is lessthan1mg/mLat70°F(NTP,1992),Density is 0.904at59°F(NTP,1992)-Lessdensethanwater;willfloat"",""Markup"":[{""Start"":45,""Length"":5,""URL"":""https://pubchem.ncbi.nlm.nih.gov/compound/water"",""Type"":""PubChemInternalLink"",""Extra"":""CID-962"
2-methoxyethanol,COCCO,-6.619999999999999,-4.686,"cid is 13450,compound_name is Terbutryn,cid_paras is 13450,Molecular_Weight is 241.36,XLogP3 is 3.7,Hydrogen_Bond_Donor_Count is 2,Hydrogen_Bond_Acceptor_Count is 6,Rotatable_Bond_Count is 5,Exact_Mass is 241.13611680,Monoisotopic_Mass is 241.13611680,Topological_Polar_Surface_Area is 88,""Unit"":""Å²"",Heavy_Atom_Count is 16,Formal_Charge is 0,Complexity is 206,Isotope_Atom_Count is 0,Defined_Atom_Stereocenter_Count is 0,Undefined_Atom_Stereocenter_Count is 0,Defined_Bond_Stereocenter_Count is 0,Undefined_Bond_Stereocenter_Count is 0,Covalently_Bonded_Unit_Count is 1,Compound_Is_Canonicalized is Yes,Physical_Description is Whitesolid;[HSDB],Color/Form is WHITE,CRYSTALLINE,Boiling_Point is 154-160°Cat0.06mmHg,Melting_Point is 104°C,Solubility is 35.9[ug/mL](ThemeanoftheresultsatpH7.4),Density is 1.115at20°C"
methyl formate,COC=O,-2.78,-4.028,"cid is 10907,compound_name is 2,2,4-Trimethylpentane,cid_paras is 10907,Molecular_Weight is 114.23,XLogP3 is 3.8,Hydrogen_Bond_Donor_Count is 0,Hydrogen_Bond_Acceptor_Count is 0,Rotatable_Bond_Count is 2,Exact_Mass is 114.140850574,Monoisotopic_Mass is 114.140850574,Topological_Polar_Surface_Area is 0,""Unit"":""Å²"",Heavy_Atom_Count is 8,Formal_Charge is 0,Complexity is 54.9,Isotope_Atom_Count is 0,Defined_Atom_Stereocenter_Count is 0,Undefined_Atom_Stereocenter_Count is 0,Defined_Bond_Stereocenter_Count is 0,Undefined_Bond_Stereocenter_Count is 0,Covalently_Bonded_Unit_Count is 1,Compound_Is_Canonicalized is Yes,Physical_Description is Isooctaneappearsasaclearcolorlessliquidwithapetroleum-likeodor.Lessdensethanwaterandinsolubleinwater.Vaporsareheavierthanair."",""Markup"":[{""Start"":0,""Length"":9,""URL"":""https://pubchem.ncbi.nlm.nih.gov/compound/Isooctane"",""Type"":""PubChemInternalLink"",""Extra"":""CID-10907"",Color/Form is MOBILELIQUID,Odor is ODOROFGASOLINE,Boiling_Point is 99.238°C,Melting_Point is -107.45°C,Flash_Point is 10°F(NFPA,2010),Solubility is PRACTICALLYINSOLINWATER;SOMEWHATSOLINABSALC;SOLINBENZENE,TOLUENE,XYLENE,CHLOROFORM,ETHER,CARBONDISULFIDE,CARBONTETRACHLORIDE,DMF&OILS,EXCEPTCASTOROIL."",""Markup"":[{""Start"":21,""Length"":5,""URL"":""https://pubchem.ncbi.nlm.nih.gov/compound/WATER"",""Type"":""PubChemInternalLink"",""Extra"":""CID-962"",Density is 0.69194@20°C/4°C"
naphthalen-2-amine,c1ccc2cc(ccc2c1)N,-7.47,-8.003,"cid is 10405,compound_name is 5-Nonanone,cid_paras is 10405,Molecular_Weight is 142.24,XLogP3 is 2.7,Hydrogen_Bond_Donor_Count is 0,Hydrogen_Bond_Acceptor_Count is 1,Rotatable_Bond_Count is 6,Exact_Mass is 142.135765193,Monoisotopic_Mass is 142.135765193,Topological_Polar_Surface_Area is 17.1,""Unit"":""Å²"",Heavy_Atom_Count is 10,Formal_Charge is 0,Complexity is 76.7,Isotope_Atom_Count is 0,Defined_Atom_Stereocenter_Count is 0,Undefined_Atom_Stereocenter_Count is 0,Defined_Bond_Stereocenter_Count is 0,Undefined_Bond_Stereocenter_Count is 0,Covalently_Bonded_Unit_Count is 1,Compound_Is_Canonicalized is Yes,Physical_Description is Di-n-butylketoneisacolorlesstolightyellowliquid.Floatsonwater.Freezingpointis21°F.(USCG,1999)"",""Markup"":[{""Start"":0,""Length"":17,""URL"":""https://pubchem.ncbi.nlm.nih.gov/compound/Di-n-butyl%20ketone"",""Type"":""PubChemInternalLink"",""Extra"":""CID-10405"",Color/Form is Colorlesstolightyellowliquid,Boiling_Point is 370°Fat760mmHg(USCG,1999),Melting_Point is 21°F(USCG,1999),Flash_Point is 60°C(closedcup),Solubility is Solubleinethanol;verysolubleinetherandchloroform"",""Markup"":[{""Start"":11,""Length"":7,""URL"":""https://pubchem.ncbi.nlm.nih.gov/compound/ethanol"",""Type"":""PubChemInternalLink"",""Extra"":""CID-702"",Density is 0.822at68°F(USCG,1999)-Lessdensethanwater;willfloat"",""Markup"":[{""Start"":46,""Length"":5,""URL"":""https://pubchem.ncbi.nlm.nih.gov/compound/water"",""Type"":""PubChemInternalLink"",""Extra"":""CID-962"