iupac,smiles,expt,calc,Description
octane,CCCCCCCC,2.88,3.088,"cid is 7909,compound_name is Methyl isobutyl ketone,cid_paras is 7909,Molecular_Weight is 100.16,XLogP3 is 1.3,Hydrogen_Bond_Donor_Count is 0,Hydrogen_Bond_Acceptor_Count is 1,Rotatable_Bond_Count is 2,Exact_Mass is 100.088815002,Monoisotopic_Mass is 100.088815002,Topological_Polar_Surface_Area is 17.1,""Unit"":""Å²"",Heavy_Atom_Count is 7,Formal_Charge is 0,Complexity is 64.6,Isotope_Atom_Count is 0,Defined_Atom_Stereocenter_Count is 0,Undefined_Atom_Stereocenter_Count is 0,Defined_Bond_Stereocenter_Count is 0,Undefined_Bond_Stereocenter_Count is 0,Covalently_Bonded_Unit_Count is 1,Compound_Is_Canonicalized is Yes,Physical_Description is Methylisobutylketoneappearsasaclearcolorlessliquidwithapleasantodor.Flashpoint73°F.Lessdensethanwater.Vaporsheavierthanair."",""Markup"":[{""Start"":0,""Length"":22,""URL"":""https://pubchem.ncbi.nlm.nih.gov/compound/Methyl%20isobutyl%20ketone"",""Type"":""PubChemInternalLink"",""Extra"":""CID-7909"",Color/Form is Liquid,Odor is Pleasantodor,Boiling_Point is 243to244°Fat760mmHg(NTP,1992),Melting_Point is -120.5°F(NTP,1992),Flash_Point is 73°F(NTP,1992),Solubility is 1to5mg/mLat70°F(NTP,1992),Density is 0.802at68°F(USCG,1999)-Lessdensethanwater;willfloat"",""Markup"":[{""Start"":46,""Length"":5,""URL"":""https://pubchem.ncbi.nlm.nih.gov/compound/water"",""Type"":""PubChemInternalLink"",""Extra"":""CID-962"
trifluralin,CCCN(CCC)c1c(cc(cc1[N+](=O)[O-])C(F)(F)F)[N+](=O)[O-],-3.25,-2.023,"cid is 6184,compound_name is Hexanal,cid_paras is 6184,Molecular_Weight is 100.16,XLogP3 is 1.8,Hydrogen_Bond_Donor_Count is 0,Hydrogen_Bond_Acceptor_Count is 1,Rotatable_Bond_Count is 4,Exact_Mass is 100.088815002,Monoisotopic_Mass is 100.088815002,Topological_Polar_Surface_Area is 17.1,""Unit"":""Å²"",Heavy_Atom_Count is 7,Formal_Charge is 0,Complexity is 41.4,Isotope_Atom_Count is 0,Defined_Atom_Stereocenter_Count is 0,Undefined_Atom_Stereocenter_Count is 0,Defined_Bond_Stereocenter_Count is 0,Undefined_Bond_Stereocenter_Count is 0,Covalently_Bonded_Unit_Count is 1,Compound_Is_Canonicalized is Yes,Physical_Description is Hexaldehydeappearsasaclearcolorlessliquidwithapungentodor.Flashpoint90°F.Lessdensethanwaterandinsolubleinwater.Vaporsheavierthanair."",""Markup"":[{""Start"":0,""Length"":11,""URL"":""https://pubchem.ncbi.nlm.nih.gov/compound/Hexaldehyde"",""Type"":""PubChemInternalLink"",""Extra"":""CID-6184"",Color/Form is Colorlessliquid,Odor is Characteristicfruityodor(ondilution),Boiling_Point is 262°Fat760mmHg(USCG,1999),Melting_Point is -58.2°C,Flash_Point is 90°F(USCG,1999),Solubility is Inwater,5.64X10+3mg/Lat30°C"",""Markup"":[{""Start"":3,""Length"":5,""URL"":""https://pubchem.ncbi.nlm.nih.gov/compound/water"",""Type"":""PubChemInternalLink"",""Extra"":""CID-962,Density is 0.83at68°F(USCG,1999)-Lessdensethanwater;willfloat"",""Markup"":[{""Start"":45,""Length"":5,""URL"":""https://pubchem.ncbi.nlm.nih.gov/compound/water"",""Type"":""PubChemInternalLink"",""Extra"":""CID-962"
"(3R)-3,7-Dimethylocta-1,6-dien-3-yl acetate",CC(=CCC[C@](C)(C=C)OC(=O)C)C,-2.49,-2.964,"cid is 7932,compound_name is 3-Chloroaniline,cid_paras is 7932,Molecular_Weight is 127.57,XLogP3 is 1.9,Hydrogen_Bond_Donor_Count is 1,Hydrogen_Bond_Acceptor_Count is 1,Rotatable_Bond_Count is 0,Exact_Mass is 127.0188769,Monoisotopic_Mass is 127.0188769,Topological_Polar_Surface_Area is 26,""Unit"":""Å²"",Heavy_Atom_Count is 8,Formal_Charge is 0,Complexity is 74.9,Isotope_Atom_Count is 0,Defined_Atom_Stereocenter_Count is 0,Undefined_Atom_Stereocenter_Count is 0,Defined_Bond_Stereocenter_Count is 0,Undefined_Bond_Stereocenter_Count is 0,Covalently_Bonded_Unit_Count is 1,Compound_Is_Canonicalized is Yes,Physical_Description is M-chloroanilineisacolorlesstolightamberliquidwithasweetodor.(NTP,1992)"",""Markup"":[{""Start"":0,""Length"":15,""URL"":""https://pubchem.ncbi.nlm.nih.gov/compound/M-chloroaniline"",""Type"":""PubChemInternalLink"",""Extra"":""CID-7932,Color/Form is Colorlesstolightamber,tendstodarkenduringstorage,Odor is Characteristicsweetodor,Boiling_Point is 446.9°Fat760mmHg(NTP,1992),Melting_Point is 13.5°F(NTP,1992),Flash_Point is 255°F(NTP,1992),Solubility is lessthan1mg/mLat64°F(NTP,1992),Density is 1.216at68°F(NTP,1992)-Denserthanwater;willsink"",""Markup"":[{""Start"":41,""Length"":5,""URL"":""https://pubchem.ncbi.nlm.nih.gov/compound/water"",""Type"":""PubChemInternalLink"",""Extra"":""CID-962"
"1,3-bis-(nitrooxy)butane",C[C@@H](CCO[N+](=O)[O-])O[N+](=O)[O-],-4.29,-4.944,"cid is 8095,compound_name is 2-Ethoxyethyl acetate,cid_paras is 8095,Molecular_Weight is 132.16,XLogP3 is 0.3,Hydrogen_Bond_Donor_Count is 0,Hydrogen_Bond_Acceptor_Count is 3,Rotatable_Bond_Count is 5,Exact_Mass is 132.078644241,Monoisotopic_Mass is 132.078644241,Topological_Polar_Surface_Area is 35.5,""Unit"":""Å²"",Heavy_Atom_Count is 9,Formal_Charge is 0,Complexity is 80.4,Isotope_Atom_Count is 0,Defined_Atom_Stereocenter_Count is 0,Undefined_Atom_Stereocenter_Count is 0,Defined_Bond_Stereocenter_Count is 0,Undefined_Bond_Stereocenter_Count is 0,Covalently_Bonded_Unit_Count is 1,Compound_Is_Canonicalized is Yes,Physical_Description is Ethyleneglycolmonoethyletheracetateappearsasaclearcolorlessliquidwithapleasantodor.Flashpointof120°F.Lessdensethanwater.Vaporsareheavierthanair."",""Markup"":[{""Start"":0,""Length"":39,""URL"":""https://pubchem.ncbi.nlm.nih.gov/compound/Ethylene%20glycol%20monoethyl%20ether%20acetate"",""Type"":""PubChemInternalLink"",""Extra"":""CID-8095"",Color/Form is Colorlessliquid,Odor is MILDESTER-LIKEODORBECOMESOBJECTIONABLEINHIGHCONCN...,Boiling_Point is 313°Fat760mmHg(NTP,1992),Melting_Point is -79.1°F(NTP,1992),Flash_Point is 135°F(NTP,1992),Solubility is greaterthanorequalto100mg/mLat66°F(NTP,1992),Density is 0.974at68°F(USCG,1999)-Lessdensethanwater;willfloat"",""Markup"":[{""Start"":46,""Length"":5,""URL"":""https://pubchem.ncbi.nlm.nih.gov/compound/water"",""Type"":""PubChemInternalLink"",""Extra"":""CID-962"
2-isopropoxypropane,CC(C)OC(C)C,-0.53,-0.178,"cid is 7765,compound_name is Acetal,cid_paras is 7765,Molecular_Weight is 118.17,XLogP3 is 0.8,Hydrogen_Bond_Donor_Count is 0,Hydrogen_Bond_Acceptor_Count is 2,Rotatable_Bond_Count is 4,Exact_Mass is 118.099379685,Monoisotopic_Mass is 118.099379685,Topological_Polar_Surface_Area is 18.5,""Unit"":""Å²"",Heavy_Atom_Count is 8,Formal_Charge is 0,Complexity is 39.8,Isotope_Atom_Count is 0,Defined_Atom_Stereocenter_Count is 0,Undefined_Atom_Stereocenter_Count is 0,Defined_Bond_Stereocenter_Count is 0,Undefined_Bond_Stereocenter_Count is 0,Covalently_Bonded_Unit_Count is 1,Compound_Is_Canonicalized is Yes,Physical_Description is Acetalappearsasaclearcolorlessliquidwithapleasantodor.Boilingpoint103-104°C.Flashpoint-5°F.Density0.831g/cm3.Slightlysolubleinwater.Vaporsheavierthanair.Moderatelytoxicandnarcoticinhighconcentrations."",""Markup"":[{""Start"":153,""Length"":5,""URL"":""https://pubchem.ncbi.nlm.nih.gov/compound/water"",""Type"":""PubChemInternalLink"",""Extra"":""CID-962,Color/Form is COLORLESSLIQUID,Odor is PUNGENT,GREEN,WOODYSOLVENTODOR,Boiling_Point is 216°Fat760mmHg(USCG,1999),Melting_Point is -148°F(USCG,1999),Flash_Point is -5°F(USCG,1999),Solubility is MISCIBLEWITHALCOHOL,60%ALCOHOL,ETHER;SOLINHEPTANE,METHYLCYCLOHEXANE,ETHYLACETATE;PROPYL,ISOPROPYL,BUTYL&ISOBUTYLALCOHOLS;100GWATERDISSOLVE5GACETAL"",""Markup"":[{""Start"":50,""Length"":7,""URL"":""https://pubchem.ncbi.nlm.nih.gov/compound/HEPTANE"",""Type"":""PubChemInternalLink"",""Extra"":""CID-8900"",Density is 0.831at68°F(USCG,1999)-Lessdensethanwater;willfloat"",""Markup"":[{""Start"":46,""Length"":5,""URL"":""https://pubchem.ncbi.nlm.nih.gov/compound/water"",""Type"":""PubChemInternalLink"",""Extra"":""CID-962"
2-methylhexane,CCCCC(C)C,2.93,2.894,"cid is 2319,compound_name is Benfluralin,cid_paras is 2319,Molecular_Weight is 335.28,XLogP3 is 5.3,Hydrogen_Bond_Donor_Count is 0,Hydrogen_Bond_Acceptor_Count is 8,Rotatable_Bond_Count is 5,Exact_Mass is 335.10929049,Monoisotopic_Mass is 335.10929049,Topological_Polar_Surface_Area is 94.9,""Unit"":""Å²"",Heavy_Atom_Count is 23,Formal_Charge is 0,Complexity is 398,Isotope_Atom_Count is 0,Defined_Atom_Stereocenter_Count is 0,Undefined_Atom_Stereocenter_Count is 0,Defined_Bond_Stereocenter_Count is 0,Undefined_Bond_Stereocenter_Count is 0,Covalently_Bonded_Unit_Count is 1,Compound_Is_Canonicalized is Yes,Physical_Description is Benfluralinisayellow-orangesolid.Herbicide."",""Markup"":[{""Start"":0,""Length"":11,""URL"":""https://pubchem.ncbi.nlm.nih.gov/compound/Benfluralin"",""Type"":""PubChemInternalLink"",""Extra"":""CID-2319,Color/Form is Yellow-orangecrystals,Odor is NOAPPRECIABLEODOR,Boiling_Point is 148-149°Cat7mmHg;121-122°Cat0.5mmHg,Melting_Point is 65-66.5°C,Solubility is G/100MLAT25°C:>50INACETONE;>25INACETONITRILE;>50INCHLOROFORM;45INDIMETHYLFORMAMIDE;60INDIOXANE;4INMETHANOL;58INMETHYLETHYLKETONE;45INXYLENE"",""Markup"":[{""Start"":26,""Length"":7,""URL"":""https://pubchem.ncbi.nlm.nih.gov/compound/ACETONE"",""Type"":""PubChemInternalLink"",""Extra"":""CID-180"""
pentachloronitrobenzene,c1(c(c(c(c(c1Cl)Cl)Cl)Cl)Cl)N(=O)=O,-5.22,-1.284,"cid is 878,compound_name is Methanethiol,cid_paras is 878,Molecular_Weight is 48.11,XLogP3 is 0.5,Hydrogen_Bond_Donor_Count is 1,Hydrogen_Bond_Acceptor_Count is 1,Rotatable_Bond_Count is 0,Exact_Mass is 48.00337130,Monoisotopic_Mass is 48.00337130,Topological_Polar_Surface_Area is 1,""Unit"":""Å²"",Heavy_Atom_Count is 2,Formal_Charge is 0,Complexity is 2,Isotope_Atom_Count is 0,Defined_Atom_Stereocenter_Count is 0,Undefined_Atom_Stereocenter_Count is 0,Defined_Bond_Stereocenter_Count is 0,Undefined_Bond_Stereocenter_Count is 0,Covalently_Bonded_Unit_Count is 1,Compound_Is_Canonicalized is Yes,Physical_Description is Methylmercaptanappearsasacolorlesslow-boilingliquidthatisdenserthanwater.Verytoxicbyinhalation.Canbeabsorbedthroughtheskin.Hasasharpodor,butthesenseofsmellcannotbereliedupontowarnofthepresenceofvaporsatlowconcentrations.Rateofonset:ImmediatePersistence:MinutestohoursOdorthreshold:0.002ppmSource/use/otherhazard:Fromdecayedorganicmatter-pulpmills,oilrefineries;highlyflammable;liquidburns/frostbite."",""Markup"":[{""Start"":0,""Length"":16,""URL"":""https://pubchem.ncbi.nlm.nih.gov/compound/Methyl%20mercaptan"",""Type"":""PubChemInternalLink"",""Extra"":""CID-878"",Color/Form is Water-whiteliquidwhenbelowboilingpoint,orcolorlessgas"",""Markup"":[{""Start"":0,""Length"":5,""URL"":""https://pubchem.ncbi.nlm.nih.gov/compound/Water"",""Type"":""PubChemInternalLink"",""Extra"":""CID-962,Odor is Odorofrottencabbage,Boiling_Point is 42.7°Fat760mmHg(EPA,1998),Melting_Point is -189.4°F(EPA,1998),Flash_Point is 0°F(EPA,1998),Solubility is 2%(NIOSH,2024),Density is 0.892at42.8°F(USCG,1999)-Lessdensethanwater;willfloat"",""Markup"":[{""Start"":48,""Length"":5,""URL"":""https://pubchem.ncbi.nlm.nih.gov/compound/water"",""Type"":""PubChemInternalLink"",""Extra"":""CID-962"
"2-bromo-2-chloro-1,1,1-trifluoro-ethane",[C@@H](C(F)(F)F)(Cl)Br,-0.11,0.206,"cid is 12309460,compound_name is beta-Endosulfan,cid_paras is 12309460,Molecular_Weight is 406.9,XLogP3 is 3.8,Hydrogen_Bond_Donor_Count is 0,Hydrogen_Bond_Acceptor_Count is 4,Rotatable_Bond_Count is 0,Exact_Mass is 405.813931,Monoisotopic_Mass is 403.816881,Topological_Polar_Surface_Area is 54.7,""Unit"":""Å²"",Heavy_Atom_Count is 19,Formal_Charge is 0,Complexity is 470,Isotope_Atom_Count is 0,Defined_Atom_Stereocenter_Count is 4,Undefined_Atom_Stereocenter_Count is 0,Defined_Bond_Stereocenter_Count is 0,Undefined_Bond_Stereocenter_Count is 0,Covalently_Bonded_Unit_Count is 1,Compound_Is_Canonicalized is Yes,Physical_Description is Beta-endosulfanappearsasbrowncrystals.Meltingpoint208-210°C.Usedasaninsecticide."",""Markup"":[{""Start"":0,""Length"":15,""URL"":""https://pubchem.ncbi.nlm.nih.gov/compound/Beta-endosulfan"",""Type"":""PubChemInternalLink"",""Extra"":""CID-12309460,Melting_Point is 406to410°F(NTP,1992),Solubility is Insoluble(NTP,1992)"
1-butoxybutane,CCCCOCCCC,-0.83,0.139,"cid is 7476,compound_name is 4'-Methoxyacetophenone,cid_paras is 7476,Molecular_Weight is 150.17,XLogP3 is 1.7,Hydrogen_Bond_Donor_Count is 0,Hydrogen_Bond_Acceptor_Count is 2,Rotatable_Bond_Count is 2,Exact_Mass is 150.068079557,Monoisotopic_Mass is 150.068079557,Topological_Polar_Surface_Area is 26.3,""Unit"":""Å²"",Heavy_Atom_Count is 11,Formal_Charge is 0,Complexity is 135,Isotope_Atom_Count is 0,Defined_Atom_Stereocenter_Count is 0,Undefined_Atom_Stereocenter_Count is 0,Defined_Bond_Stereocenter_Count is 0,Undefined_Bond_Stereocenter_Count is 0,Covalently_Bonded_Unit_Count is 1,Compound_Is_Canonicalized is Yes,Physical_Description is Whitecrystallinepowder;mp=36-40degC;[AlfaAesarMSDS],Color/Form is Crystallinesolid,Odor is Pleasantodor,Boiling_Point is 254°C,Melting_Point is 38.2°C,Flash_Point is 138°C(280°F)-opencup,Solubility is Solubleinethanol,diethylether,acetoneandchloroform"",""Markup"":[{""Start"":11,""Length"":7,""URL"":""https://pubchem.ncbi.nlm.nih.gov/compound/ethanol"",""Type"":""PubChemInternalLink"",""Extra"":""CID-702"",Density is 1.0818g/cucmat41°C"
pentylcyclopentane,CCCCCC1CCCC1,2.55,2.381,"cid is 7858,compound_name is Allyl alcohol,cid_paras is 7858,Molecular_Weight is 58.08,XLogP3 is 0.2,Hydrogen_Bond_Donor_Count is 1,Hydrogen_Bond_Acceptor_Count is 1,Rotatable_Bond_Count is 1,Exact_Mass is 58.041864811,Monoisotopic_Mass is 58.041864811,Topological_Polar_Surface_Area is 20.2,""Unit"":""Å²"",Heavy_Atom_Count is 4,Formal_Charge is 0,Complexity is 17.2,Isotope_Atom_Count is 0,Defined_Atom_Stereocenter_Count is 0,Undefined_Atom_Stereocenter_Count is 0,Defined_Bond_Stereocenter_Count is 0,Undefined_Bond_Stereocenter_Count is 0,Covalently_Bonded_Unit_Count is 1,Compound_Is_Canonicalized is Yes,Physical_Description is Allylalcoholappearsasaclearcolorlessliquidwithamustard-likeodor.Flashpoint70°F.Verytoxicbyinhalationandingestion.Lessdensethanwater(7.1lb/gal).Vaporsareheavierthanair.Prolongedexposuretolowconcentrationsorshortexposuretohighconcentrationsmayhaveadversehealtheffectsfrominhalation."",""Markup"":[{""Start"":0,""Length"":13,""URL"":""https://pubchem.ncbi.nlm.nih.gov/compound/Allyl%20alcohol"",""Type"":""PubChemInternalLink"",""Extra"":""CID-7858"",Color/Form is Colorlessliquid,Odor is Pungent,mustard-likeodor,Boiling_Point is 206°Fat760mmHg(EPA,1998),Melting_Point is -200°F(EPA,1998),Flash_Point is 71.6°F(EPA,1998),Solubility is Miscible(NIOSH,2024),Density is 0.854at68°F(EPA,1998)-Lessdensethanwater;willfloat"",""Markup"":[{""Start"":45,""Length"":5,""URL"":""https://pubchem.ncbi.nlm.nih.gov/compound/water"",""Type"":""PubChemInternalLink"",""Extra"":""CID-962"
"2,4-dimethylpentane",CC(C)CC(C)C,2.83,2.756,"cid is 12230,compound_name is Ethyl methyl sulfide,cid_paras is 12230,Molecular_Weight is 76.16,XLogP3 is 1.5,Hydrogen_Bond_Donor_Count is 0,Hydrogen_Bond_Acceptor_Count is 1,Rotatable_Bond_Count is 1,Exact_Mass is 76.03467143,Monoisotopic_Mass is 76.03467143,Topological_Polar_Surface_Area is 25.3,""Unit"":""Å²"",Heavy_Atom_Count is 4,Formal_Charge is 0,Complexity is 7.2,Isotope_Atom_Count is 0,Defined_Atom_Stereocenter_Count is 0,Undefined_Atom_Stereocenter_Count is 0,Defined_Bond_Stereocenter_Count is 0,Undefined_Bond_Stereocenter_Count is 0,Covalently_Bonded_Unit_Count is 1,Compound_Is_Canonicalized is Yes,Physical_Description is Liquid,Boiling_Point is 65.00to67.00°C.@760.00mmHg,Melting_Point is -104.8°C,Solubility is insolubleinwater;solubleinalcoholsandoils"",""Markup"":[{""Start"":13,""Length"":5,""URL"":""https://pubchem.ncbi.nlm.nih.gov/compound/water"",""Type"":""PubChemInternalLink"",""Extra"":""CID-962,Density is 0.842-0.847"
"2,5-dimethylpyridine",Cc1ccc(nc1)C,-4.72,-3.165,"cid is 12348,compound_name is Pentyl acetate,cid_paras is 12348,Molecular_Weight is 130.18,XLogP3 is 1.9,Hydrogen_Bond_Donor_Count is 0,Hydrogen_Bond_Acceptor_Count is 2,Rotatable_Bond_Count is 5,Exact_Mass is 130.099379685,Monoisotopic_Mass is 130.099379685,Topological_Polar_Surface_Area is 26.3,""Unit"":""Å²"",Heavy_Atom_Count is 9,Formal_Charge is 0,Complexity is 79,Isotope_Atom_Count is 0,Defined_Atom_Stereocenter_Count is 0,Undefined_Atom_Stereocenter_Count is 0,Defined_Bond_Stereocenter_Count is 0,Undefined_Bond_Stereocenter_Count is 0,Covalently_Bonded_Unit_Count is 1,Compound_Is_Canonicalized is Yes,Physical_Description is N-amylacetateappearsasamixtureofisomers.Aclearcolorlessliquidwithabanana-likeodor.Flashpointvariesfrom65°Fto95°F.Lessdense(at7.2lb/gal)thanwaterandslightlysolubleinwater.Hencefloatsonwater.Vaporsheavierthanair."",""Markup"":[{""Start"":0,""Length"":14,""URL"":""https://pubchem.ncbi.nlm.nih.gov/compound/N-amyl%20acetate"",""Type"":""PubChemInternalLink"",""Extra"":""CID-12348"",Color/Form is Colorlessliquid,Odor is Persistentbanana-likeodor,Boiling_Point is 295°Fat760mmHg(USCG,1999),Melting_Point is lessthan-148°F(USCG,1999),Flash_Point is (n-)91°F(cc);(allisomers)106F(cc);(iso-)69°F(cc)(USCG,1999),Solubility is 0.2%(NIOSH,2024),Density is 0.876at68°F(USCG,1999)-Lessdensethanwater;willfloat"",""Markup"":[{""Start"":46,""Length"":5,""URL"":""https://pubchem.ncbi.nlm.nih.gov/compound/water"",""Type"":""PubChemInternalLink"",""Extra"":""CID-962"
but-2-enal,C/C=C/C=O,-4.22,-3.341,"cid is 10326,compound_name is Indan,cid_paras is 10326,Molecular_Weight is 118.18,XLogP3 is 3.2,Hydrogen_Bond_Donor_Count is 0,Hydrogen_Bond_Acceptor_Count is 0,Rotatable_Bond_Count is 0,Exact_Mass is 118.078250319,Monoisotopic_Mass is 118.078250319,Topological_Polar_Surface_Area is 0,""Unit"":""Å²"",Heavy_Atom_Count is 9,Formal_Charge is 0,Complexity is 84.2,Isotope_Atom_Count is 0,Defined_Atom_Stereocenter_Count is 0,Undefined_Atom_Stereocenter_Count is 0,Defined_Bond_Stereocenter_Count is 0,Undefined_Bond_Stereocenter_Count is 0,Covalently_Bonded_Unit_Count is 1,Compound_Is_Canonicalized is Yes,Physical_Description is Liquid;[MerckIndex]Clearlightyellowliquid;[Sigma-AldrichMSDS]"
3-methylhexane,CCC[C@H](C)CC,2.71,2.81,"cid is 7410,compound_name is Acetophenone,cid_paras is 7410,Molecular_Weight is 120.15,XLogP3 is 1.6,Hydrogen_Bond_Donor_Count is 0,Hydrogen_Bond_Acceptor_Count is 1,Rotatable_Bond_Count is 1,Exact_Mass is 120.057514874,Monoisotopic_Mass is 120.057514874,Topological_Polar_Surface_Area is 17.1,""Unit"":""Å²"",Heavy_Atom_Count is 9,Formal_Charge is 0,Complexity is 101,Isotope_Atom_Count is 0,Defined_Atom_Stereocenter_Count is 0,Undefined_Atom_Stereocenter_Count is 0,Defined_Bond_Stereocenter_Count is 0,Undefined_Bond_Stereocenter_Count is 0,Covalently_Bonded_Unit_Count is 1,Compound_Is_Canonicalized is Yes,Physical_Description is Acetophenoneappearsasacolorlessliquidwithasweetpungenttasteandodorresemblingtheodoroforanges.Freezesundercoolconditions.Slightlysolubleinwateranddenserthanwater.Hencesinksinwater.Vaporheavierthanair.Amildirritanttoskinandeyes.Vaporscanbenarcoticinhighconcentrations.Usedasaflavoring,solvent,andpolymerizationcatalyst."",""Markup"":[{""Start"":0,""Length"":12,""URL"":""https://pubchem.ncbi.nlm.nih.gov/compound/Acetophenone"",""Type"":""PubChemInternalLink"",""Extra"":""CID-7410"",Color/Form is Colorlessliquid,Odor is Sweetpungentodor,Boiling_Point is 395.1°Fat760mmHg(USCG,1999),Melting_Point is 67.5°F(USCG,1999),Flash_Point is 180°F(USCG,1999),Solubility is Inwater,6,130mg/Lat25°C"",""Markup"":[{""Start"":3,""Length"":5,""URL"":""https://pubchem.ncbi.nlm.nih.gov/compound/water"",""Type"":""PubChemInternalLink"",""Extra"":""CID-962,Density is 1.028at68°F(USCG,1999)-Denserthanwater;willsink"",""Markup"":[{""Start"":42,""Length"":5,""URL"":""https://pubchem.ncbi.nlm.nih.gov/compound/water"",""Type"":""PubChemInternalLink"",""Extra"":""CID-962"