iupac,smiles,expt,calc,Description
[2-benzhydryloxyethyl]-dimethyl-amine,CN(C)CCOC(c1ccccc1)c2ccccc2,-9.34,-7.873,"cid is 26447,compound_name is Menthone,cid_paras is 26447,Molecular_Weight is 154.25,XLogP3 is 2.7,Hydrogen_Bond_Donor_Count is 0,Hydrogen_Bond_Acceptor_Count is 1,Rotatable_Bond_Count is 1,Exact_Mass is 154.135765193,Monoisotopic_Mass is 154.135765193,Topological_Polar_Surface_Area is 17.1,""Unit"":""Å²"",Heavy_Atom_Count is 11,Formal_Charge is 0,Complexity is 149,Isotope_Atom_Count is 0,Defined_Atom_Stereocenter_Count is 2,Undefined_Atom_Stereocenter_Count is 0,Defined_Bond_Stereocenter_Count is 0,Undefined_Bond_Stereocenter_Count is 0,Covalently_Bonded_Unit_Count is 1,Compound_Is_Canonicalized is Yes,Physical_Description is Colorlessliquidwithamildodorofpeppermint;[Hawley],Color/Form is Colorless,oily,mobileliq,Odor is Slightpeppermintodor,Boiling_Point is 210°C,Melting_Point is -6°C,Solubility is Slightlysolinwater;solinorgsolvents/L-form/"",""Markup"":[{""Start"":16,""Length"":5,""URL"":""https://pubchem.ncbi.nlm.nih.gov/compound/water"",""Type"":""PubChemInternalLink"",""Extra"":""CID-962,Density is 0.888-0.895"
pentanal,CCCCC=O,-3.03,-2.927,"cid is 64689,compound_name is beta-D-glucopyranose,cid_paras is 64689,Molecular_Weight is 180.16,XLogP3 is -2.6,Hydrogen_Bond_Donor_Count is 5,Hydrogen_Bond_Acceptor_Count is 6,Rotatable_Bond_Count is 1,Exact_Mass is 180.06338810,Monoisotopic_Mass is 180.06338810,Topological_Polar_Surface_Area is 110,""Unit"":""Å²"",Heavy_Atom_Count is 12,Formal_Charge is 0,Complexity is 151,Isotope_Atom_Count is 0,Defined_Atom_Stereocenter_Count is 5,Undefined_Atom_Stereocenter_Count is 0,Defined_Bond_Stereocenter_Count is 0,Undefined_Bond_Stereocenter_Count is 0,Covalently_Bonded_Unit_Count is 1,Compound_Is_Canonicalized is Yes,Physical_Description is Solid;[MerckIndex]Whitecrystallinepowder;[Sigma-AldrichMSDS],Melting_Point is 83,""Unit"":""°C"",Solubility is 1200000,""Unit"":""mg/L(at30°C)"""
diphenyl ether,c1ccc(cc1)Oc2ccccc2,-2.87,-2.81,"cid is 11638,compound_name is Fluoromethane,cid_paras is 11638,Molecular_Weight is 34.033,XLogP3 is 0.6,Hydrogen_Bond_Donor_Count is 0,Hydrogen_Bond_Acceptor_Count is 1,Rotatable_Bond_Count is 0,Exact_Mass is 34.021878258,Monoisotopic_Mass is 34.021878258,Topological_Polar_Surface_Area is 0,""Unit"":""Å²"",Heavy_Atom_Count is 2,Formal_Charge is 0,Complexity is 2,Isotope_Atom_Count is 0,Defined_Atom_Stereocenter_Count is 0,Undefined_Atom_Stereocenter_Count is 0,Defined_Bond_Stereocenter_Count is 0,Undefined_Bond_Stereocenter_Count is 0,Covalently_Bonded_Unit_Count is 1,Compound_Is_Canonicalized is Yes,Physical_Description is Methylfluoride(orfluoromethane)isacolorlessflammablegaswhichisheavierthanair.Ithasanagreeableether-likeodor.Itisnarcoticinhighconcentrations.Itburnswithevolutionofhydrogenfluoride.Theflameiscolorless,similartoalcohol.Underprolongedexposuretofireorintenseheatthecontainersmayruptureviolentlyandrocket."",""Markup"":[{""Start"":0,""Length"":15,""URL"":""https://pubchem.ncbi.nlm.nih.gov/compound/Methyl%20fluoride"",""Type"":""PubChemInternalLink"",""Extra"":""CID-11638"""
cyclohexanone,C1CCC(=O)CC1,-4.91,-4.18,"cid is 679,compound_name is Dimethyl Sulfoxide,cid_paras is 679,Molecular_Weight is 78.14,XLogP3 is -0.6,Hydrogen_Bond_Donor_Count is 0,Hydrogen_Bond_Acceptor_Count is 2,Rotatable_Bond_Count is 0,Exact_Mass is 78.01393598,Monoisotopic_Mass is 78.01393598,Topological_Polar_Surface_Area is 36.3,""Unit"":""Å²"",Heavy_Atom_Count is 4,Formal_Charge is 0,Complexity is 29,Isotope_Atom_Count is 0,Defined_Atom_Stereocenter_Count is 0,Undefined_Atom_Stereocenter_Count is 0,Defined_Bond_Stereocenter_Count is 0,Undefined_Bond_Stereocenter_Count is 0,Covalently_Bonded_Unit_Count is 1,Compound_Is_Canonicalized is Yes,Physical_Description is Dimethylsulfoxideappearsasaclearliquid,essentiallyodorless.Closedcupflashpoint192°F.Vaporsareheavierthanair.Contactwiththeskinmaycausestingingandburningandleadtoanodorofgarliconthebreath.Anexcellentsolventthatcantransporttoxicsolutesthroughtheskin.Highvaporconcentrationsmaycauseheadache,dizziness,andsedation."",""Markup"":[{""Start"":0,""Length"":18,""URL"":""https://pubchem.ncbi.nlm.nih.gov/compound/Dimethyl%20sulfoxide"",""Type"":""PubChemInternalLink"",""Extra"":""CID-679,Color/Form is Colorlessliquid,Odor is Slightlysulfurousodor,Boiling_Point is 372°Fat760mmHg(NTP,1992),Melting_Point is 65.3°F(NTP,1992),Flash_Point is 203°F(NTP,1992),Solubility is greaterthanorequalto100mg/mLat68°F(NTP,1992),Density is 1.101at68°F(USCG,1999)-Denserthanwater;willsink"",""Markup"":[{""Start"":42,""Length"":5,""URL"":""https://pubchem.ncbi.nlm.nih.gov/compound/water"",""Type"":""PubChemInternalLink"",""Extra"":""CID-962"
1-nitrobutane,CCCC[N+](=O)[O-],-3.09,-1.449,"cid is 9216,compound_name is Dibenzo-P-dioxin,cid_paras is 9216,Molecular_Weight is 184.19,XLogP3 is 4.4,Hydrogen_Bond_Donor_Count is 0,Hydrogen_Bond_Acceptor_Count is 2,Rotatable_Bond_Count is 0,Exact_Mass is 184.052429494,Monoisotopic_Mass is 184.052429494,Topological_Polar_Surface_Area is 18.5,""Unit"":""Å²"",Heavy_Atom_Count is 14,Formal_Charge is 0,Complexity is 163,Isotope_Atom_Count is 0,Defined_Atom_Stereocenter_Count is 0,Undefined_Atom_Stereocenter_Count is 0,Defined_Bond_Stereocenter_Count is 0,Undefined_Bond_Stereocenter_Count is 0,Covalently_Bonded_Unit_Count is 1,Compound_Is_Canonicalized is Yes,Physical_Description is Dibenzo-p-dioxinappearsaswhitecrystalsorcrystallinesolid.(NTP,1992)"",""Markup"":[{""Start"":0,""Length"":16,""URL"":""https://pubchem.ncbi.nlm.nih.gov/compound/Dibenzo-p-dioxin"",""Type"":""PubChemInternalLink"",""Extra"":""CID-9216,Color/Form is Crystalsfrommethanol,Melting_Point is 252to253°F(NTP,1992),Solubility is lessthan1mg/mLat64°F(NTP,1992)"
pyridine-4-carbaldehyde,c1cnccc1C=O,-7.0,-7.338,"cid is 7242,compound_name is o-Toluidine,cid_paras is 7242,Molecular_Weight is 107.15,XLogP3 is 1.3,Hydrogen_Bond_Donor_Count is 1,Hydrogen_Bond_Acceptor_Count is 1,Rotatable_Bond_Count is 0,Exact_Mass is 107.073499291,Monoisotopic_Mass is 107.073499291,Topological_Polar_Surface_Area is 26,""Unit"":""Å²"",Heavy_Atom_Count is 8,Formal_Charge is 0,Complexity is 70.8,Isotope_Atom_Count is 0,Defined_Atom_Stereocenter_Count is 0,Undefined_Atom_Stereocenter_Count is 0,Defined_Bond_Stereocenter_Count is 0,Undefined_Bond_Stereocenter_Count is 0,Covalently_Bonded_Unit_Count is 1,Compound_Is_Canonicalized is Yes,Physical_Description is O-toluidineappearsasaclearcolorlessorlightyellowliquid.Maybecomereddishbrownonexposuretoairandlight.Flashpoint185°F.Hasaboutthesamedensityaswaterandisveryslightlysolubleinwater.Vaporsareheavierthanair.Confirmedcarcinogen."",""Markup"":[{""Start"":0,""Length"":11,""URL"":""https://pubchem.ncbi.nlm.nih.gov/compound/O-toluidine"",""Type"":""PubChemInternalLink"",""Extra"":""CID-7242"",Color/Form is Lightyellowliquidbecomingreddishbrownonexposuretoairandlight,Odor is Aromaticaniline-likeodor,Boiling_Point is 392to396°Fat760mmHg(NTP,1992),Melting_Point is 2.7°F(NTP,1992),Flash_Point is 185°F(NTP,1992),Solubility is 5to10mg/mLat59°F(NTP,1992),Density is 0.998at68°F(USCG,1999)-Lessdensethanwater;willfloat"",""Markup"":[{""Start"":46,""Length"":5,""URL"":""https://pubchem.ncbi.nlm.nih.gov/compound/water"",""Type"":""PubChemInternalLink"",""Extra"":""CID-962"
1-chloro-2-(2-chloroethoxy)ethane,C(CCl)OCCCl,-4.23,-2.248,"cid is 8002,compound_name is 1-Bromobutane,cid_paras is 8002,Molecular_Weight is 137.02,XLogP3 is 2.8,Hydrogen_Bond_Donor_Count is 0,Hydrogen_Bond_Acceptor_Count is 0,Rotatable_Bond_Count is 2,Exact_Mass is 135.98876,Monoisotopic_Mass is 135.98876,Topological_Polar_Surface_Area is 0,""Unit"":""Å²"",Heavy_Atom_Count is 5,Formal_Charge is 0,Complexity is 13.1,Isotope_Atom_Count is 0,Defined_Atom_Stereocenter_Count is 0,Undefined_Atom_Stereocenter_Count is 0,Defined_Bond_Stereocenter_Count is 0,Undefined_Bond_Stereocenter_Count is 0,Covalently_Bonded_Unit_Count is 1,Compound_Is_Canonicalized is Yes,Physical_Description is 1-bromobutaneappearsasaclearcolorlessliquid.Flashpoint65°F.Denserthanwaterandinsolubleinwater.Vaporsheavierthanair."",""Markup"":[{""Start"":0,""Length"":13,""URL"":""https://pubchem.ncbi.nlm.nih.gov/compound/1-bromobutane"",""Type"":""PubChemInternalLink"",""Extra"":""CID-8002"",Color/Form is Colorlesstopalestraw-coloredliquid,Boiling_Point is 214°Fat760mmHg(USCG,1999),Melting_Point is -170°F(USCG,1999),Flash_Point is 65°F(USCG,1999),Solubility is Slightlysolubleincarbontetrachloride;solubleinchloroform;misciblewithethanol,ether,acetone"",""Markup"":[{""Start"":20,""Length"":20,""URL"":""https://pubchem.ncbi.nlm.nih.gov/compound/carbon%20tetrachloride"",""Type"":""PubChemInternalLink"",""Extra"":""CID-5943"",Density is 1.276at68°F(USCG,1999)-Denserthanwater;willsink"",""Markup"":[{""Start"":42,""Length"":5,""URL"":""https://pubchem.ncbi.nlm.nih.gov/compound/water"",""Type"":""PubChemInternalLink"",""Extra"":""CID-962"
1-nitroethane,CC[N+](=O)[O-],-3.71,-1.839,"cid is 8914,compound_name is Nonan-1-ol,cid_paras is 8914,Molecular_Weight is 144.25,XLogP3 is 4.3,Hydrogen_Bond_Donor_Count is 1,Hydrogen_Bond_Acceptor_Count is 1,Rotatable_Bond_Count is 7,Exact_Mass is 144.151415257,Monoisotopic_Mass is 144.151415257,Topological_Polar_Surface_Area is 20.2,""Unit"":""Å²"",Heavy_Atom_Count is 10,Formal_Charge is 0,Complexity is 52.7,Isotope_Atom_Count is 0,Defined_Atom_Stereocenter_Count is 0,Undefined_Atom_Stereocenter_Count is 0,Defined_Bond_Stereocenter_Count is 0,Undefined_Bond_Stereocenter_Count is 0,Covalently_Bonded_Unit_Count is 1,Compound_Is_Canonicalized is Yes,Physical_Description is Nonanolappearsascolorlessliquidwitharoseorfruityodor.Floatsonwater.Freezingpoint23°F.(USCG,1999)"",""Markup"":[{""Start"":0,""Length"":7,""URL"":""https://pubchem.ncbi.nlm.nih.gov/compound/Nonanol"",""Type"":""PubChemInternalLink"",""Extra"":""CID-8914"",Color/Form is Colorlesstoyellowishliquid,Odor is Floralodor,Boiling_Point is 415°Fat760mmHg(USCG,1999),Melting_Point is 23°F(USCG,1999),Flash_Point is 165°F(USCG,1999),Solubility is Misciblewithalcohol,ether,Density is 0.827at68°F(USCG,1999)-Lessdensethanwater;willfloat"",""Markup"":[{""Start"":46,""Length"":5,""URL"":""https://pubchem.ncbi.nlm.nih.gov/compound/water"",""Type"":""PubChemInternalLink"",""Extra"":""CID-962"
3-chloropyridine,c1cc(cnc1)Cl,-4.01,-2.767,"cid is 7963,compound_name is Picoline, gamma,cid_paras is 7963,Molecular_Weight is 93.13,XLogP3 is 1.2,Hydrogen_Bond_Donor_Count is 0,Hydrogen_Bond_Acceptor_Count is 1,Rotatable_Bond_Count is 0,Exact_Mass is 93.057849228,Monoisotopic_Mass is 93.057849228,Topological_Polar_Surface_Area is 12.9,""Unit"":""Å²"",Heavy_Atom_Count is 7,Formal_Charge is 0,Complexity is 46.1,Isotope_Atom_Count is 0,Defined_Atom_Stereocenter_Count is 0,Undefined_Atom_Stereocenter_Count is 0,Defined_Bond_Stereocenter_Count is 0,Undefined_Bond_Stereocenter_Count is 0,Covalently_Bonded_Unit_Count is 1,Compound_Is_Canonicalized is Yes,Physical_Description is 4-methylpyridineisacolorlessmoderatelyvolatileliquid.(NTP,1992)"",""Markup"":[{""Start"":0,""Length"":17,""URL"":""https://pubchem.ncbi.nlm.nih.gov/compound/4-methyl-pyridine"",""Type"":""PubChemInternalLink"",""Extra"":""CID-7963,Color/Form is Colorlessliquid,Odor is Obnoxious,sweetishodor,Boiling_Point is 292.8°Fat760mmHg(NTP,1992),Melting_Point is 38.5°F(NTP,1992),Flash_Point is 134°F(NTP,1992),Solubility is Misciblewithwaterat20°C"",""Markup"":[{""Start"":14,""Length"":5,""URL"":""https://pubchem.ncbi.nlm.nih.gov/compound/water"",""Type"":""PubChemInternalLink"",""Extra"":""CID-962,Density is 0.9548at68°F(NTP,1992)-Lessdensethanwater;willfloat"",""Markup"":[{""Start"":46,""Length"":5,""URL"":""https://pubchem.ncbi.nlm.nih.gov/compound/water"",""Type"":""PubChemInternalLink"",""Extra"":""CID-962"
bromomethane,CBr,-0.82,0.46,"cid is 31373,compound_name is Tetrachloroethylene,cid_paras is 31373,Molecular_Weight is 165.8,XLogP3 is 3.4,Hydrogen_Bond_Donor_Count is 0,Hydrogen_Bond_Acceptor_Count is 0,Rotatable_Bond_Count is 0,Exact_Mass is 165.872461,Monoisotopic_Mass is 163.875411,Topological_Polar_Surface_Area is 0,""Unit"":""Å²"",Heavy_Atom_Count is 6,Formal_Charge is 0,Complexity is 55.6,Isotope_Atom_Count is 0,Defined_Atom_Stereocenter_Count is 0,Undefined_Atom_Stereocenter_Count is 0,Defined_Bond_Stereocenter_Count is 0,Undefined_Bond_Stereocenter_Count is 0,Covalently_Bonded_Unit_Count is 1,Compound_Is_Canonicalized is Yes,Physical_Description is Perchloroethyleneappearsasaclearcolorlessvolatileliquidhavinganether-likeodor.Noncombustible.Insolubleinwater.Vaporsheavierthanair.Densityapproximately13.5lb/gal.Usedasdrycleaningsolvent,adegreasingsolvent,adryingagentformetals,andinthemanufactureofotherchemicals."",""Markup"":[{""Start"":0,""Length"":17,""URL"":""https://pubchem.ncbi.nlm.nih.gov/compound/Perchloroethylene"",""Type"":""PubChemInternalLink"",""Extra"":""CID-31373"",Color/Form is Colorlessliquid,Odor is Ether-likeodor,Boiling_Point is 250°Fat760mmHg(NTP,1992),Melting_Point is -2°F(NTP,1992),Flash_Point is Noflashpointinconventionalclosedtester.,Solubility is lessthan0.1mg/mLat63°F(NTP,1992),Density is 1.63at68°F(USCG,1999)-Denserthanwater;willsink"",""Markup"":[{""Start"":41,""Length"":5,""URL"":""https://pubchem.ncbi.nlm.nih.gov/compound/water"",""Type"":""PubChemInternalLink"",""Extra"":""CID-962"
methanol,CO,-5.1,-3.491,"cid is 10485,compound_name is 2-Bromo-2-methylpropane,cid_paras is 10485,Molecular_Weight is 137.02,XLogP3 is 2,Hydrogen_Bond_Donor_Count is 0,Hydrogen_Bond_Acceptor_Count is 0,Rotatable_Bond_Count is 0,Exact_Mass is 135.98876,Monoisotopic_Mass is 135.98876,Topological_Polar_Surface_Area is 0,""Unit"":""Å²"",Heavy_Atom_Count is 5,Formal_Charge is 0,Complexity is 25.1,Isotope_Atom_Count is 0,Defined_Atom_Stereocenter_Count is 0,Undefined_Atom_Stereocenter_Count is 0,Defined_Bond_Stereocenter_Count is 0,Undefined_Bond_Stereocenter_Count is 0,Covalently_Bonded_Unit_Count is 1,Compound_Is_Canonicalized is Yes,Physical_Description is T-butylbromideappearsasacolorlessliquid.Slightlydenserthanwaterandinsolubleinwater.Harmfulifinhaled."",""Markup"":[{""Start"":0,""Length"":15,""URL"":""https://pubchem.ncbi.nlm.nih.gov/compound/T-butyl%20bromide"",""Type"":""PubChemInternalLink"",""Extra"":""CID-10485"",Color/Form is Colorlessliquid,Boiling_Point is 73.3°C,Melting_Point is -16.2°C,Flash_Point is 18.3°C,Solubility is Misciblewithorganicsolvents,Density is 1.2125at25°C/4°C"
heptanal,CCCCCCC=O,-2.67,-2.704,"cid is 10740,compound_name is 1,1-Diphenylethylene,cid_paras is 10740,Molecular_Weight is 180.24,XLogP3 is 4.6,Hydrogen_Bond_Donor_Count is 0,Hydrogen_Bond_Acceptor_Count is 0,Rotatable_Bond_Count is 2,Exact_Mass is 180.093900383,Monoisotopic_Mass is 180.093900383,Topological_Polar_Surface_Area is 0,""Unit"":""Å²"",Heavy_Atom_Count is 14,Formal_Charge is 0,Complexity is 160,Isotope_Atom_Count is 0,Defined_Atom_Stereocenter_Count is 0,Undefined_Atom_Stereocenter_Count is 0,Defined_Bond_Stereocenter_Count is 0,Undefined_Bond_Stereocenter_Count is 0,Covalently_Bonded_Unit_Count is 1,Compound_Is_Canonicalized is Yes,Physical_Description is Liquid;mp=8.2degC;[MerckIndex]Yellowliquid;[MSDSonline]"
"1,3-dichloro-2-(2,6-dichlorophenyl)benzene",c1cc(c(c(c1)Cl)c2c(cccc2Cl)Cl)Cl,-2.28,-1.226,"cid is 12160,compound_name is 4-Ethyltoluene,cid_paras is 12160,Molecular_Weight is 120.19,XLogP3 is 3.6,Hydrogen_Bond_Donor_Count is 0,Hydrogen_Bond_Acceptor_Count is 0,Rotatable_Bond_Count is 1,Exact_Mass is 120.093900383,Monoisotopic_Mass is 120.093900383,Topological_Polar_Surface_Area is 0,""Unit"":""Å²"",Heavy_Atom_Count is 9,Formal_Charge is 0,Complexity is 68.1,Isotope_Atom_Count is 0,Defined_Atom_Stereocenter_Count is 0,Undefined_Atom_Stereocenter_Count is 0,Defined_Bond_Stereocenter_Count is 0,Undefined_Bond_Stereocenter_Count is 0,Covalently_Bonded_Unit_Count is 1,Compound_Is_Canonicalized is Yes,Physical_Description is Liquid"
2-nitroaniline,c1ccc(c(c1)N)[N+](=O)[O-],-7.37,-7.66,"cid is 7970,compound_name is beta-PICOLINE,cid_paras is 7970,Molecular_Weight is 93.13,XLogP3 is 1.2,Hydrogen_Bond_Donor_Count is 0,Hydrogen_Bond_Acceptor_Count is 1,Rotatable_Bond_Count is 0,Exact_Mass is 93.057849228,Monoisotopic_Mass is 93.057849228,Topological_Polar_Surface_Area is 12.9,""Unit"":""Å²"",Heavy_Atom_Count is 7,Formal_Charge is 0,Complexity is 52.1,Isotope_Atom_Count is 0,Defined_Atom_Stereocenter_Count is 0,Undefined_Atom_Stereocenter_Count is 0,Defined_Bond_Stereocenter_Count is 0,Undefined_Bond_Stereocenter_Count is 0,Covalently_Bonded_Unit_Count is 1,Compound_Is_Canonicalized is Yes,Physical_Description is Beta-picolineisacolorlessliquidwithasweetishodor.(NTP,1992)"",""Markup"":[{""Start"":0,""Length"":13,""URL"":""https://pubchem.ncbi.nlm.nih.gov/compound/Beta-picoline"",""Type"":""PubChemInternalLink"",""Extra"":""CID-7970,Color/Form is Colorlessliquid,Odor is Sweetish,notunpleasantodor,Boiling_Point is 290to291°Fat760mmHg(NTP,1992),Melting_Point is -0.9°F(NTP,1992),Flash_Point is 97°F(NTP,1992),Solubility is Verysoluble(NTP,1992),Density is 0.957(USCG,1999)-Lessdensethanwater;willfloat"",""Markup"":[{""Start"":37,""Length"":5,""URL"":""https://pubchem.ncbi.nlm.nih.gov/compound/water"",""Type"":""PubChemInternalLink"",""Extra"":""CID-962"
1-methylpiperidine,CN1CCCCC1,-3.88,-3.467,"cid is 141897,compound_name is 1,1,1,2-Tetramethoxyethane,cid_paras is 141897,Molecular_Weight is 150.17,XLogP3 is -0.3,Hydrogen_Bond_Donor_Count is 0,Hydrogen_Bond_Acceptor_Count is 4,Rotatable_Bond_Count is 5,Exact_Mass is 150.08920892,Monoisotopic_Mass is 150.08920892,Topological_Polar_Surface_Area is 36.9,""Unit"":""Å²"",Heavy_Atom_Count is 10,Formal_Charge is 0,Complexity is 71.6,Isotope_Atom_Count is 0,Defined_Atom_Stereocenter_Count is 0,Undefined_Atom_Stereocenter_Count is 0,Defined_Bond_Stereocenter_Count is 0,Undefined_Bond_Stereocenter_Count is 0,Covalently_Bonded_Unit_Count is 1,Compound_Is_Canonicalized is Yes"
octanal,CCCCCCCC=O,-2.29,-2.57,"cid is 6853,compound_name is Fluorene,cid_paras is 6853,Molecular_Weight is 166.22,XLogP3 is 4.2,Hydrogen_Bond_Donor_Count is 0,Hydrogen_Bond_Acceptor_Count is 0,Rotatable_Bond_Count is 0,Exact_Mass is 166.078250319,Monoisotopic_Mass is 166.078250319,Topological_Polar_Surface_Area is 0,""Unit"":""Å²"",Heavy_Atom_Count is 13,Formal_Charge is 0,Complexity is 165,Isotope_Atom_Count is 0,Defined_Atom_Stereocenter_Count is 0,Undefined_Atom_Stereocenter_Count is 0,Defined_Bond_Stereocenter_Count is 0,Undefined_Bond_Stereocenter_Count is 0,Covalently_Bonded_Unit_Count is 1,Compound_Is_Canonicalized is Yes,Physical_Description is Fluoreneisawhiteleaflets.Sublimeseasilyunderavacuum.Fluorescentwhenimpure.(NTP,1992)"",""Markup"":[{""Start"":0,""Length"":8,""URL"":""https://pubchem.ncbi.nlm.nih.gov/compound/Fluorene"",""Type"":""PubChemInternalLink"",""Extra"":""CID-6853,Color/Form is Leafletsfromalcohol,Boiling_Point is 563°Fat760mmHg(NTP,1992),Melting_Point is 241to243°F(NTP,1992),Flash_Point is 151.0°C(303.8°F)-closedcup,Solubility is Insoluble.(1.7mg/kg)(NTP,1992),Density is 1.203at32°F(NTP,1992)-Denserthanwater;willsink"",""Markup"":[{""Start"":41,""Length"":5,""URL"":""https://pubchem.ncbi.nlm.nih.gov/compound/water"",""Type"":""PubChemInternalLink"",""Extra"":""CID-962"