iupac,smiles,expt,calc,Description
propyl formate,CCCOC=O,-2.48,-3.699,"cid is 7295,compound_name is Methyl chloroacetate,cid_paras is 7295,Molecular_Weight is 108.52,XLogP3 is 0.7,Hydrogen_Bond_Donor_Count is 0,Hydrogen_Bond_Acceptor_Count is 2,Rotatable_Bond_Count is 2,Exact_Mass is 107.9978071,Monoisotopic_Mass is 107.9978071,Topological_Polar_Surface_Area is 26.3,""Unit"":""Å²"",Heavy_Atom_Count is 6,Formal_Charge is 0,Complexity is 52.8,Isotope_Atom_Count is 0,Defined_Atom_Stereocenter_Count is 0,Undefined_Atom_Stereocenter_Count is 0,Defined_Bond_Stereocenter_Count is 0,Undefined_Bond_Stereocenter_Count is 0,Covalently_Bonded_Unit_Count is 1,Compound_Is_Canonicalized is Yes,Physical_Description is Methylchloroacetateappearsasacrystallinesolidorasoliddissolvedinaliquid.Insolubleinwateranddenserthanwater.Contactmayslightlyirritateskin,eyesandmucousmembranes.Maybeslightlytoxicbyingestion.Usedtomakeotherchemicals."",""Markup"":[{""Start"":0,""Length"":20,""URL"":""https://pubchem.ncbi.nlm.nih.gov/compound/Methyl%20chloroacetate"",""Type"":""PubChemInternalLink"",""Extra"":""CID-7295"",Color/Form is Liquid,Odor is Sweetpungentodor,Boiling_Point is 266°Fat760mmHg(USCG,1999),Melting_Point is -26°F(USCG,1999),Flash_Point is 125°F(USCG,1999),Solubility is Inwater,4.6X10+4mg/Lat20°C"",""Markup"":[{""Start"":3,""Length"":5,""URL"":""https://pubchem.ncbi.nlm.nih.gov/compound/water"",""Type"":""PubChemInternalLink"",""Extra"":""CID-962,Density is 1.2337at68°F(USCG,1999)-Denserthanwater;willsink"",""Markup"":[{""Start"":43,""Length"":5,""URL"":""https://pubchem.ncbi.nlm.nih.gov/compound/water"",""Type"":""PubChemInternalLink"",""Extra"":""CID-962"
2-chlorodibenzo-p-dioxin,c1ccc2c(c1)Oc3ccc(cc3O2)Cl,-3.1,-4.054,"cid is 261,compound_name is Butyraldehyde,cid_paras is 261,Molecular_Weight is 72.11,XLogP3 is 0.9,Hydrogen_Bond_Donor_Count is 0,Hydrogen_Bond_Acceptor_Count is 1,Rotatable_Bond_Count is 2,Exact_Mass is 72.057514874,Monoisotopic_Mass is 72.057514874,Topological_Polar_Surface_Area is 17.1,""Unit"":""Å²"",Heavy_Atom_Count is 5,Formal_Charge is 0,Complexity is 24.8,Isotope_Atom_Count is 0,Defined_Atom_Stereocenter_Count is 0,Undefined_Atom_Stereocenter_Count is 0,Defined_Bond_Stereocenter_Count is 0,Undefined_Bond_Stereocenter_Count is 0,Covalently_Bonded_Unit_Count is 1,Compound_Is_Canonicalized is Yes,Physical_Description is Butyraldehydeappearsasaclearliquidwithapungentodor.Lessdensethanwaterandinsolubleinwater.Vaporsheavierthanair."",""Markup"":[{""Start"":0,""Length"":13,""URL"":""https://pubchem.ncbi.nlm.nih.gov/compound/Butyraldehyde"",""Type"":""PubChemInternalLink"",""Extra"":""CID-261"",Color/Form is Liquid,Odor is Characteristic,pungent,aldehydeodor,Boiling_Point is 167°Fat760mmHg(NTP,1992),Melting_Point is -146°F(NTP,1992),Flash_Point is 20°F(NTP,1992),Solubility is lessthan1mg/mLat66°F(NTP,1992),Density is 0.803at68°F(USCG,1999)-Lessdensethanwater;willfloat"",""Markup"":[{""Start"":46,""Length"":5,""URL"":""https://pubchem.ncbi.nlm.nih.gov/compound/water"",""Type"":""PubChemInternalLink"",""Extra"":""CID-962"
hexanoic acid,CCCCCC(=O)O,-6.21,-7.878,"cid is 7500,compound_name is Ethylbenzene,cid_paras is 7500,Molecular_Weight is 106.16,XLogP3 is 3.1,Hydrogen_Bond_Donor_Count is 0,Hydrogen_Bond_Acceptor_Count is 0,Rotatable_Bond_Count is 1,Exact_Mass is 106.078250319,Monoisotopic_Mass is 106.078250319,Topological_Polar_Surface_Area is 0,""Unit"":""Å²"",Heavy_Atom_Count is 8,Formal_Charge is 0,Complexity is 51.1,Isotope_Atom_Count is 0,Defined_Atom_Stereocenter_Count is 0,Undefined_Atom_Stereocenter_Count is 0,Defined_Bond_Stereocenter_Count is 0,Undefined_Bond_Stereocenter_Count is 0,Covalently_Bonded_Unit_Count is 1,Compound_Is_Canonicalized is Yes,Physical_Description is Ethylbenzeneappearsasaclearcolorlessliquidwithanaromaticodor.Flashpoint59°F.Lessdensethanwater(at7.2lb/gal)andinsolubleinwater.Hencefloatsonwater.Vaporsheavierthanair.Usedasasolventandtomakeotherchemicals."",""Markup"":[{""Start"":0,""Length"":12,""URL"":""https://pubchem.ncbi.nlm.nih.gov/compound/Ethylbenzene"",""Type"":""PubChemInternalLink"",""Extra"":""CID-7500"",Color/Form is Colorlessliquid,Odor is Aromaticodor,Boiling_Point is 277.2°Fat760mmHg(NTP,1992),Melting_Point is -139°F(NTP,1992),Flash_Point is 59°F(NTP,1992),Solubility is lessthan1mg/mLat73°F(NTP,1992),Density is 0.867at68°F(USCG,1999)-Lessdensethanwater;willfloat"",""Markup"":[{""Start"":46,""Length"":5,""URL"":""https://pubchem.ncbi.nlm.nih.gov/compound/water"",""Type"":""PubChemInternalLink"",""Extra"":""CID-962"
diethyl butanedioate,CCOC(=O)CCC(=O)OCC,-5.71,-8.683,"cid is 6575,compound_name is Trichloroethylene,cid_paras is 6575,Molecular_Weight is 131.38,XLogP3 is 2.6,Hydrogen_Bond_Donor_Count is 0,Hydrogen_Bond_Acceptor_Count is 0,Rotatable_Bond_Count is 0,Exact_Mass is 129.914383,Monoisotopic_Mass is 129.914383,Topological_Polar_Surface_Area is 0,""Unit"":""Å²"",Heavy_Atom_Count is 5,Formal_Charge is 0,Complexity is 42.9,Isotope_Atom_Count is 0,Defined_Atom_Stereocenter_Count is 0,Undefined_Atom_Stereocenter_Count is 0,Defined_Bond_Stereocenter_Count is 0,Undefined_Bond_Stereocenter_Count is 0,Covalently_Bonded_Unit_Count is 1,Compound_Is_Canonicalized is Yes,Physical_Description is Trichloroethyleneappearsasaclearcolorlessvolatileliquidhavingachloroform-likeodor.Denserthanwaterandisslightlysolubleinwater.Noncombustible.Usedasasolvent,fumigant,inthemanufactureofotherchemicals,andformanyotheruses."",""Markup"":[{""Start"":0,""Length"":17,""URL"":""https://pubchem.ncbi.nlm.nih.gov/compound/Trichloroethylene"",""Type"":""PubChemInternalLink"",""Extra"":""CID-6575"",Color/Form is Colorlessliquid(unlessdyedblue),Odor is Etherealodor,Boiling_Point is 189°Fat760mmHg(NTP,1992),Melting_Point is -99°F(NTP,1992),Flash_Point is greaterthan200°F(NTP,1992),Solubility is lessthan1mg/mLat70°F(NTP,1992),Density is 1.46at68°F(USCG,1999)-Denserthanwater;willsink"",""Markup"":[{""Start"":41,""Length"":5,""URL"":""https://pubchem.ncbi.nlm.nih.gov/compound/water"",""Type"":""PubChemInternalLink"",""Extra"":""CID-962"
"2,4-dimethylpyridine",Cc1ccnc(c1)C,-4.86,-3.282,"cid is 8471,compound_name is Triethylamine,cid_paras is 8471,Molecular_Weight is 101.19,XLogP3 is 1.4,Hydrogen_Bond_Donor_Count is 0,Hydrogen_Bond_Acceptor_Count is 1,Rotatable_Bond_Count is 3,Exact_Mass is 101.120449483,Monoisotopic_Mass is 101.120449483,Topological_Polar_Surface_Area is 3.2,""Unit"":""Å²"",Heavy_Atom_Count is 7,Formal_Charge is 0,Complexity is 25.7,Isotope_Atom_Count is 0,Defined_Atom_Stereocenter_Count is 0,Undefined_Atom_Stereocenter_Count is 0,Defined_Bond_Stereocenter_Count is 0,Undefined_Bond_Stereocenter_Count is 0,Covalently_Bonded_Unit_Count is 1,Compound_Is_Canonicalized is Yes,Physical_Description is Triethylamineappearsasaclearcolorlessliquidwithastrongammoniatofish-likeodor.Flashpoint20°F.Vaporsirritatetheeyesandmucousmembranes.Lessdense(6.1lb/gal)thanwater.Vaporsheavierthanair.Producestoxicoxidesofnitrogenwhenburned."",""Markup"":[{""Start"":0,""Length"":13,""URL"":""https://pubchem.ncbi.nlm.nih.gov/compound/Triethylamine"",""Type"":""PubChemInternalLink"",""Extra"":""CID-8471"",Color/Form is Colorlessliquid,Odor is Strong,ammoniacalordor,Boiling_Point is 192.7°Fat760mmHg(NTP,1992),Melting_Point is -174.5°F(NTP,1992),Flash_Point is 20°F(NTP,1992),Solubility is Soluble(NTP,1992),Density is 0.729at68°F(USCG,1999)-Lessdensethanwater;willfloat"",""Markup"":[{""Start"":46,""Length"":5,""URL"":""https://pubchem.ncbi.nlm.nih.gov/compound/water"",""Type"":""PubChemInternalLink"",""Extra"":""CID-962"
cyclohexene,C1CCC=CC1,0.14,1.175,"cid is 38254,compound_name is 1,2,3,4,7-Pentachlorodibenzo-P-dioxin,cid_paras is 38254,Molecular_Weight is 356.4,XLogP3 is 7.8,Hydrogen_Bond_Donor_Count is 0,Hydrogen_Bond_Acceptor_Count is 2,Rotatable_Bond_Count is 0,Exact_Mass is 355.854618,Monoisotopic_Mass is 353.857568,Topological_Polar_Surface_Area is 18.5,""Unit"":""Å²"",Heavy_Atom_Count is 19,Formal_Charge is 0,Complexity is 344,Isotope_Atom_Count is 0,Defined_Atom_Stereocenter_Count is 0,Undefined_Atom_Stereocenter_Count is 0,Defined_Bond_Stereocenter_Count is 0,Undefined_Bond_Stereocenter_Count is 0,Covalently_Bonded_Unit_Count is 1,Compound_Is_Canonicalized is Yes"
"1,4-dimethylpiperazine",CN1CCN(CC1)C,-7.58,-7.874,"cid is 11417,compound_name is 3,4-Dimethylpyridine,cid_paras is 11417,Molecular_Weight is 107.15,XLogP3 is 1.6,Hydrogen_Bond_Donor_Count is 0,Hydrogen_Bond_Acceptor_Count is 1,Rotatable_Bond_Count is 0,Exact_Mass is 107.073499291,Monoisotopic_Mass is 107.073499291,Topological_Polar_Surface_Area is 12.9,""Unit"":""Å²"",Heavy_Atom_Count is 8,Formal_Charge is 0,Complexity is 70.8,Isotope_Atom_Count is 0,Defined_Atom_Stereocenter_Count is 0,Undefined_Atom_Stereocenter_Count is 0,Defined_Bond_Stereocenter_Count is 0,Undefined_Bond_Stereocenter_Count is 0,Covalently_Bonded_Unit_Count is 1,Compound_Is_Canonicalized is Yes,Physical_Description is Colorlesstolightyellowliquid;[JubilantLifeSciencesMSDS]"
"1,2,3,4-tetrachloro-5-(3,4-dichlorophenyl)benzene",c1cc(c(cc1c2cc(c(c(c2Cl)Cl)Cl)Cl)Cl)Cl,-3.04,-1.083,"cid is 7956,compound_name is Cyanuric acid,cid_paras is 7956,Molecular_Weight is 129.07,XLogP3 is -1.2,Hydrogen_Bond_Donor_Count is 3,Hydrogen_Bond_Acceptor_Count is 3,Rotatable_Bond_Count is 0,Exact_Mass is 129.01744097,Monoisotopic_Mass is 129.01744097,Topological_Polar_Surface_Area is 87.3,""Unit"":""Å²"",Heavy_Atom_Count is 9,Formal_Charge is 0,Complexity is 136,Isotope_Atom_Count is 0,Defined_Atom_Stereocenter_Count is 0,Undefined_Atom_Stereocenter_Count is 0,Defined_Bond_Stereocenter_Count is 0,Undefined_Bond_Stereocenter_Count is 0,Covalently_Bonded_Unit_Count is 1,Compound_Is_Canonicalized is Yes,Physical_Description is Crystals.(NTP,1992),Color/Form is Whitecrystallinesolid,Odor is Odorless,Boiling_Point is DECOMPOSES(NTP,1992),Melting_Point is greaterthan680°F(DEC.)(NTP,1992),Solubility is 0.5mL(NTP,1992),Density is 2.5at68°F(NTP,1992)-Denserthanwater;willsink"",""Markup"":[{""Start"":39,""Length"":5,""URL"":""https://pubchem.ncbi.nlm.nih.gov/compound/water"",""Type"":""PubChemInternalLink"",""Extra"":""CID-962"
quinone,C1=CC(=O)C=CC1=O,-6.5,-6.96,"cid is 240,compound_name is Benzaldehyde,cid_paras is 240,Molecular_Weight is 106.12,XLogP3 is 1.5,Hydrogen_Bond_Donor_Count is 0,Hydrogen_Bond_Acceptor_Count is 1,Rotatable_Bond_Count is 1,Exact_Mass is 106.041864811,Monoisotopic_Mass is 106.041864811,Topological_Polar_Surface_Area is 17.1,""Unit"":""Å²"",Heavy_Atom_Count is 8,Formal_Charge is 0,Complexity is 72.5,Isotope_Atom_Count is 0,Defined_Atom_Stereocenter_Count is 0,Undefined_Atom_Stereocenter_Count is 0,Defined_Bond_Stereocenter_Count is 0,Undefined_Bond_Stereocenter_Count is 0,Covalently_Bonded_Unit_Count is 1,Compound_Is_Canonicalized is Yes,Physical_Description is Benzaldehydeappearsasaclearcolorlesstoyellowliquidwithabitteralmondodor.Flashpointnear145°F.Moredenserthanwaterandinsolubleinwater.Hencesinksinwater.Vaporsareheavierthanair.Theprimaryhazardistotheenvironment.Immediatestepsshouldbetakentolimitspreadtotheenvironment.Easilypenetratesthesoiltocontaminategroundwaterandnearbywaterways.Usedinflavoringandperfumemaking."",""Markup"":[{""Start"":0,""Length"":12,""URL"":""https://pubchem.ncbi.nlm.nih.gov/compound/Benzaldehyde"",""Type"":""PubChemInternalLink"",""Extra"":""CID-240"",Color/Form is Stronglyrefractiveliquid,becomingyellowishonkeeping,Odor is Characteristicodororvolatileoilofalmond,Boiling_Point is 354°Fat760mmHg(NTP,1992),Melting_Point is -15°F(NTP,1992),Flash_Point is 148°F(NTP,1992),Solubility is lessthan0.1mg/mLat67.1°F(NTP,1992),Density is 1.046at68°F(USCG,1999)-Denserthanwater;willsink"",""Markup"":[{""Start"":42,""Length"":5,""URL"":""https://pubchem.ncbi.nlm.nih.gov/compound/water"",""Type"":""PubChemInternalLink"",""Extra"":""CID-962"
methyl 2-chloroacetate,COC(=O)CCl,-4.0,-3.816,"cid is 7977,compound_name is 2-Chloropyridine,cid_paras is 7977,Molecular_Weight is 113.54,XLogP3 is 1.2,Hydrogen_Bond_Donor_Count is 0,Hydrogen_Bond_Acceptor_Count is 1,Rotatable_Bond_Count is 0,Exact_Mass is 113.0032268,Monoisotopic_Mass is 113.0032268,Topological_Polar_Surface_Area is 12.9,""Unit"":""Å²"",Heavy_Atom_Count is 7,Formal_Charge is 0,Complexity is 56,Isotope_Atom_Count is 0,Defined_Atom_Stereocenter_Count is 0,Undefined_Atom_Stereocenter_Count is 0,Defined_Bond_Stereocenter_Count is 0,Undefined_Bond_Stereocenter_Count is 0,Covalently_Bonded_Unit_Count is 1,Compound_Is_Canonicalized is Yes,Physical_Description is 2-chloropyridineappearsasacolorlessoilyliquid.Toxicbyingestionand/orskinabsorption.Usedtomakeotherchemicals."",""Markup"":[{""Start"":0,""Length"":16,""URL"":""https://pubchem.ncbi.nlm.nih.gov/compound/2-chloropyridine"",""Type"":""PubChemInternalLink"",""Extra"":""CID-7977,Color/Form is Oil,Boiling_Point is 170°C,Flash_Point is 68°C(154°F)-closedcup,Solubility is Inwater,2.00X10+4mg/Lt25°C"",""Markup"":[{""Start"":3,""Length"":5,""URL"":""https://pubchem.ncbi.nlm.nih.gov/compound/water"",""Type"":""PubChemInternalLink"",""Extra"":""CID-962,Density is 1.205g/cucmat15°C"
butanal,CCCC=O,-3.18,-3.044,"cid is 7850,compound_name is Allyl chloride,cid_paras is 7850,Molecular_Weight is 76.52,XLogP3 is 1.5,Hydrogen_Bond_Donor_Count is 0,Hydrogen_Bond_Acceptor_Count is 0,Rotatable_Bond_Count is 1,Exact_Mass is 76.0079779,Monoisotopic_Mass is 76.0079779,Topological_Polar_Surface_Area is 0,""Unit"":""Å²"",Heavy_Atom_Count is 4,Formal_Charge is 0,Complexity is 17.2,Isotope_Atom_Count is 0,Defined_Atom_Stereocenter_Count is 0,Undefined_Atom_Stereocenter_Count is 0,Defined_Bond_Stereocenter_Count is 0,Undefined_Bond_Stereocenter_Count is 0,Covalently_Bonded_Unit_Count is 1,Compound_Is_Canonicalized is Yes,Physical_Description is Allylchlorideappearsasaclearcolorlessliquidwithanunpleasantpungentodor.Flashpoint-20°F.Boilingpoint113°F.Lessdensethanwater(7.8lb/gal)andinsolubleinwater.Hencefloatsonwater.Vaporirritatesskin,eyesandmucousmembranes.Vaporsareheavierthanair.Longexposuretolowconcentrationsorshortexposuretohighconcentrationsmayhaveadversehealtheffectsfrominhalationorskinabsorption."",""Markup"":[{""Start"":0,""Length"":14,""URL"":""https://pubchem.ncbi.nlm.nih.gov/compound/Allyl%20chloride"",""Type"":""PubChemInternalLink"",""Extra"":""CID-7850"",Color/Form is REDLIQUID,Odor is Pungent,unpleasantodor.,Boiling_Point is 113°Fat760mmHg(NTP,1992),Melting_Point is -210.1°F(NTP,1992),Flash_Point is -25°F(NTP,1992),Solubility is 1to10mg/mLat66°F(NTP,1992),Density is 0.94at68°F(USCG,1999)-Lessdensethanwater;willfloat"",""Markup"":[{""Start"":45,""Length"":5,""URL"":""https://pubchem.ncbi.nlm.nih.gov/compound/water"",""Type"":""PubChemInternalLink"",""Extra"":""CID-962"
ethylbenzene,CCc1ccccc1,-0.79,-0.606,"cid is 8500,compound_name is 4'-Methylacetophenone,cid_paras is 8500,Molecular_Weight is 134.17,XLogP3 is 2.1,Hydrogen_Bond_Donor_Count is 0,Hydrogen_Bond_Acceptor_Count is 1,Rotatable_Bond_Count is 1,Exact_Mass is 134.073164938,Monoisotopic_Mass is 134.073164938,Topological_Polar_Surface_Area is 17.1,""Unit"":""Å²"",Heavy_Atom_Count is 10,Formal_Charge is 0,Complexity is 121,Isotope_Atom_Count is 0,Defined_Atom_Stereocenter_Count is 0,Undefined_Atom_Stereocenter_Count is 0,Defined_Bond_Stereocenter_Count is 0,Undefined_Bond_Stereocenter_Count is 0,Covalently_Bonded_Unit_Count is 1,Compound_Is_Canonicalized is Yes,Physical_Description is Clear,lightyellowliquid;mp=22-24degC;[Sigma-AldrichMSDS],Boiling_Point is 222.00to226.00°C.@756.00mmHg,Melting_Point is 28°C,Solubility is 0.372mg/mLat15°C,Density is 0.999-1.010"
"1,1,2-trichloroethylene",C(=C(Cl)Cl)Cl,-0.44,0.818,"cid is 712,compound_name is Formaldehyde,cid_paras is 712,Molecular_Weight is 30.026,XLogP3 is 1.2,Hydrogen_Bond_Donor_Count is 0,Hydrogen_Bond_Acceptor_Count is 1,Rotatable_Bond_Count is 0,Exact_Mass is 30.010564683,Monoisotopic_Mass is 30.010564683,Topological_Polar_Surface_Area is 17.1,""Unit"":""Å²"",Heavy_Atom_Count is 2,Formal_Charge is 0,Complexity is 2,Isotope_Atom_Count is 0,Defined_Atom_Stereocenter_Count is 0,Undefined_Atom_Stereocenter_Count is 0,Defined_Bond_Stereocenter_Count is 0,Undefined_Bond_Stereocenter_Count is 0,Covalently_Bonded_Unit_Count is 1,Compound_Is_Canonicalized is Yes,Physical_Description is Solidscontainingvaryingamountsofformaldehyde,probablyasparaformaldehyde(polymersofformulaHO(CH2O)xHwherexaveragesabout30).Ahazardtotheenvironment.Immediatestepsshouldbetakentolimitspreadtotheenvironment."",""Markup"":[{""Start"":37,""Length"":12,""URL"":""https://pubchem.ncbi.nlm.nih.gov/compound/formaldehyde"",""Type"":""PubChemInternalLink"",""Extra"":""CID-712"",Color/Form is Nearlycolorlessgas[Note:Oftenusedinanaqueoussolution]./Pureformaldehyde/"",""Markup"":[{""Start"":70,""Length"":12,""URL"":""https://pubchem.ncbi.nlm.nih.gov/compound/formaldehyde"",""Type"":""PubChemInternalLink"",""Extra"":""CID-712,Odor is Pungent,suffocatingodor,Boiling_Point is -6°Fat760mmHg(NIOSH,2024),Melting_Point is -134°F(NIOSH,2024),Flash_Point is 140°Ffor40%solution(EPA,1998),Solubility is Miscible(NIOSH,2024),Density is 0.815at-4°Fanhydrousform(EPA,1998)-Lessdensethanwater;willfloat"",""Markup"":[{""Start"":60,""Length"":5,""URL"":""https://pubchem.ncbi.nlm.nih.gov/compound/water"",""Type"":""PubChemInternalLink"",""Extra"":""CID-962"
"N,N-diethylethanamine",CCN(CC)CC,-3.22,-1.955,"cid is 7238,compound_name is 2-Chlorotoluene,cid_paras is 7238,Molecular_Weight is 126.58,XLogP3 is 3.4,Hydrogen_Bond_Donor_Count is 0,Hydrogen_Bond_Acceptor_Count is 0,Rotatable_Bond_Count is 0,Exact_Mass is 126.0236279,Monoisotopic_Mass is 126.0236279,Topological_Polar_Surface_Area is 0,""Unit"":""Å²"",Heavy_Atom_Count is 8,Formal_Charge is 0,Complexity is 70.8,Isotope_Atom_Count is 0,Defined_Atom_Stereocenter_Count is 0,Undefined_Atom_Stereocenter_Count is 0,Defined_Bond_Stereocenter_Count is 0,Undefined_Bond_Stereocenter_Count is 0,Covalently_Bonded_Unit_Count is 1,Compound_Is_Canonicalized is Yes,Physical_Description is O-chlorotolueneisacolorlessliquidwithanaromaticodor.Denserthanwaterandpoorlysolubleinwater.Hencesinksinwater.(USCG,1999)"",""Markup"":[{""Start"":0,""Length"":15,""URL"":""https://pubchem.ncbi.nlm.nih.gov/compound/O-chlorotoluene"",""Type"":""PubChemInternalLink"",""Extra"":""CID-7238"",Color/Form is Colorlessliquid.,Odor is Aromaticodor.,Boiling_Point is 318.15°Fat760mmHg(NTP,1992),Melting_Point is -31.2°F(NTP,1992),Flash_Point is 126°F(NTP,1992),Solubility is 0.009%at77°F(NIOSH,2024),Density is 1.0825at68°F(USCG,1999)-Denserthanwater;willsink"",""Markup"":[{""Start"":43,""Length"":5,""URL"":""https://pubchem.ncbi.nlm.nih.gov/compound/water"",""Type"":""PubChemInternalLink"",""Extra"":""CID-962"
"1,2,3,4,7-pentachlorodibenzo-p-dioxin",c1cc2c(cc1Cl)Oc3c(c(c(c(c3Cl)Cl)Cl)Cl)O2,-4.15,-2.31,"cid is 77650,compound_name is N-Acetylpyrrolidine,cid_paras is 77650,Molecular_Weight is 113.16,XLogP3 is 0.2,Hydrogen_Bond_Donor_Count is 0,Hydrogen_Bond_Acceptor_Count is 1,Rotatable_Bond_Count is 0,Exact_Mass is 113.084063974,Monoisotopic_Mass is 113.084063974,Topological_Polar_Surface_Area is 20.3,""Unit"":""Å²"",Heavy_Atom_Count is 8,Formal_Charge is 0,Complexity is 94.7,Isotope_Atom_Count is 0,Defined_Atom_Stereocenter_Count is 0,Undefined_Atom_Stereocenter_Count is 0,Defined_Bond_Stereocenter_Count is 0,Undefined_Bond_Stereocenter_Count is 0,Covalently_Bonded_Unit_Count is 1,Compound_Is_Canonicalized is Yes"