iupac,smiles,expt,calc,Description
mesitylene,Cc1cc(cc(c1)C)C,-0.9,-0.553,"cid is 8058,compound_name is n-HEXANE,cid_paras is 8058,Molecular_Weight is 86.18,XLogP3 is 3.9,Hydrogen_Bond_Donor_Count is 0,Hydrogen_Bond_Acceptor_Count is 0,Rotatable_Bond_Count is 3,Exact_Mass is 86.109550447,Monoisotopic_Mass is 86.109550447,Topological_Polar_Surface_Area is 0,""Unit"":""Å²"",Heavy_Atom_Count is 6,Formal_Charge is 0,Complexity is 12,Isotope_Atom_Count is 0,Defined_Atom_Stereocenter_Count is 0,Undefined_Atom_Stereocenter_Count is 0,Defined_Bond_Stereocenter_Count is 0,Undefined_Bond_Stereocenter_Count is 0,Covalently_Bonded_Unit_Count is 1,Compound_Is_Canonicalized is Yes,Physical_Description is N-hexaneisaclearcolorlessliquidswithapetroleum-likeodor.Flashpoints-9°F.Lessdensethanwaterandinsolubleinwater.Vaporsheavierthanair.Usedasasolvent,paintthinner,andchemicalreactionmedium."",""Markup"":[{""Start"":0,""Length"":8,""URL"":""https://pubchem.ncbi.nlm.nih.gov/compound/N-hexane"",""Type"":""PubChemInternalLink"",""Extra"":""CID-8058"",Color/Form is Liquid,Odor is Gasoline-likeodor,Boiling_Point is 156°Fat760mmHg(NTP,1992),Melting_Point is -139°F(NTP,1992),Flash_Point is -9.4°F(NTP,1992),Solubility is lessthan1mg/mLat61.7°F(NTP,1992),Density is 0.659at68°F(USCG,1999)-Lessdensethanwater;willfloat"",""Markup"":[{""Start"":46,""Length"":5,""URL"":""https://pubchem.ncbi.nlm.nih.gov/compound/water"",""Type"":""PubChemInternalLink"",""Extra"":""CID-962"
5-fluorouracil,c1c(c(=O)[nH]c(=O)[nH]1)F,-16.92,-16.371,"cid is 7839,compound_name is 1,2-Dibromoethane,cid_paras is 7839,Molecular_Weight is 187.86,XLogP3 is 2,Hydrogen_Bond_Donor_Count is 0,Hydrogen_Bond_Acceptor_Count is 0,Rotatable_Bond_Count is 1,Exact_Mass is 187.86593,Monoisotopic_Mass is 185.86798,Topological_Polar_Surface_Area is 0,""Unit"":""Å²"",Heavy_Atom_Count is 4,Formal_Charge is 0,Complexity is 6,Isotope_Atom_Count is 0,Defined_Atom_Stereocenter_Count is 0,Undefined_Atom_Stereocenter_Count is 0,Defined_Bond_Stereocenter_Count is 0,Undefined_Bond_Stereocenter_Count is 0,Covalently_Bonded_Unit_Count is 1,Compound_Is_Canonicalized is Yes,Physical_Description is Ethylenedibromideappearsasaclearcolorlessliquidwithasweetishodor.Density18.1lb/gal.Slightlysolubleinwater.Solubleinmostorganicsolventsandthinners.Noncombustible.Verytoxicbyinhalation,skinabsorptionoringestion.Usedasasolvent,scavengerforleadingasoline,grainfumigantandinthemanufactureofotherchemicals."",""Markup"":[{""Start"":0,""Length"":18,""URL"":""https://pubchem.ncbi.nlm.nih.gov/compound/Ethylene%20dibromide"",""Type"":""PubChemInternalLink"",""Extra"":""CID-7839"",Color/Form is Heavyliquid,Odor is Chloroformodor,Boiling_Point is 268to270°Fat760mmHg(NTP,1992),Melting_Point is 49.9°F(NTP,1992),Solubility is lessthan1mg/mLat70°F(NTP,1992),Density is 2.18at68°F(USCG,1999)-Denserthanwater;willsink"",""Markup"":[{""Start"":41,""Length"":5,""URL"":""https://pubchem.ncbi.nlm.nih.gov/compound/water"",""Type"":""PubChemInternalLink"",""Extra"":""CID-962"
ethanol,CCO,-5.0,-3.394,"cid is 6419,compound_name is Pentachloroethane,cid_paras is 6419,Molecular_Weight is 202.3,XLogP3 is 3.2,Hydrogen_Bond_Donor_Count is 0,Hydrogen_Bond_Acceptor_Count is 0,Rotatable_Bond_Count is 0,Exact_Mass is 201.849138,Monoisotopic_Mass is 199.852089,Topological_Polar_Surface_Area is 0,""Unit"":""Å²"",Heavy_Atom_Count is 7,Formal_Charge is 0,Complexity is 51.6,Isotope_Atom_Count is 0,Defined_Atom_Stereocenter_Count is 0,Undefined_Atom_Stereocenter_Count is 0,Defined_Bond_Stereocenter_Count is 0,Undefined_Bond_Stereocenter_Count is 0,Covalently_Bonded_Unit_Count is 1,Compound_Is_Canonicalized is Yes,Physical_Description is Pentachloroethaneappearsasacolorlessliquidwithachloroform-likeodor.Insolubleinwateranddenserthanwater.Toxicbyinhalationandingestion.Mayirritateskinandeyes.Usedasasolvent."",""Markup"":[{""Start"":0,""Length"":17,""URL"":""https://pubchem.ncbi.nlm.nih.gov/compound/Pentachloroethane"",""Type"":""PubChemInternalLink"",""Extra"":""CID-6419"",Color/Form is COLORLESSLIQUID,Odor is Chloroform-like,Boiling_Point is 324°Fat760mmHg(NTP,1992),Melting_Point is -20°F(NTP,1992),Solubility is lessthan0.1mg/mLat70°F(NTP,1992),Density is 1.6728at77°F(USCG,1999)-Denserthanwater;willsink"",""Markup"":[{""Start"":43,""Length"":5,""URL"":""https://pubchem.ncbi.nlm.nih.gov/compound/water"",""Type"":""PubChemInternalLink"",""Extra"":""CID-962"
"1,4-dimethylnaphthalene",Cc1ccc(c2c1cccc2)C,-2.82,-3.081,"cid is 5899,compound_name is 5-(Trifluoromethyl)uracil,cid_paras is 5899,Molecular_Weight is 180.08,XLogP3 is 0,Hydrogen_Bond_Donor_Count is 2,Hydrogen_Bond_Acceptor_Count is 5,Rotatable_Bond_Count is 0,Exact_Mass is 180.01466183,Monoisotopic_Mass is 180.01466183,Topological_Polar_Surface_Area is 58.2,""Unit"":""Å²"",Heavy_Atom_Count is 12,Formal_Charge is 0,Complexity is 268,Isotope_Atom_Count is 0,Defined_Atom_Stereocenter_Count is 0,Undefined_Atom_Stereocenter_Count is 0,Defined_Bond_Stereocenter_Count is 0,Undefined_Bond_Stereocenter_Count is 0,Covalently_Bonded_Unit_Count is 1,Compound_Is_Canonicalized is Yes"
"2,3,7,8-tetrachlorodibenzo-p-dioxin",c1c2c(cc(c1Cl)Cl)Oc3cc(c(cc3O2)Cl)Cl,-3.37,-2.54,"cid is 6896,compound_name is 2,6-Dimethylaniline,cid_paras is 6896,Molecular_Weight is 121.18,XLogP3 is 1.8,Hydrogen_Bond_Donor_Count is 1,Hydrogen_Bond_Acceptor_Count is 1,Rotatable_Bond_Count is 0,Exact_Mass is 121.089149355,Monoisotopic_Mass is 121.089149355,Topological_Polar_Surface_Area is 26,""Unit"":""Å²"",Heavy_Atom_Count is 9,Formal_Charge is 0,Complexity is 80.6,Isotope_Atom_Count is 0,Defined_Atom_Stereocenter_Count is 0,Undefined_Atom_Stereocenter_Count is 0,Defined_Bond_Stereocenter_Count is 0,Undefined_Bond_Stereocenter_Count is 0,Covalently_Bonded_Unit_Count is 1,Compound_Is_Canonicalized is Yes,Physical_Description is 2,6-xylidineappearsasaliquid.Toxicbyingestion,inhalationandskinabsorption.Slightlysolubleinwater.Usedinpharmaceuticals,asdyeintermediatesandorganicsyntheses."",""Markup"":[{""Start"":0,""Length"":12,""URL"":""https://pubchem.ncbi.nlm.nih.gov/compound/2%2C6-xylidine"",""Type"":""PubChemInternalLink"",""Extra"":""CID-6896"",Color/Form is Yellowliquid,Odor is Characteristicodor,Boiling_Point is 417°Fat739mmHg(NTP,1992),Melting_Point is 47.1°F(NTP,1992),Flash_Point is 196°F(NTP,1992),Solubility is lessthan1mg/mLat75°F(NTP,1992),Density is 0.984(USCG,1999)-Lessdensethanwater;willfloat"",""Markup"":[{""Start"":37,""Length"":5,""URL"":""https://pubchem.ncbi.nlm.nih.gov/compound/water"",""Type"":""PubChemInternalLink"",""Extra"":""CID-962"
dichlobenil,c1cc(c(c(c1)Cl)C#N)Cl,-4.71,-3.32,"cid is 10326,compound_name is Indan,cid_paras is 10326,Molecular_Weight is 118.18,XLogP3 is 3.2,Hydrogen_Bond_Donor_Count is 0,Hydrogen_Bond_Acceptor_Count is 0,Rotatable_Bond_Count is 0,Exact_Mass is 118.078250319,Monoisotopic_Mass is 118.078250319,Topological_Polar_Surface_Area is 0,""Unit"":""Å²"",Heavy_Atom_Count is 9,Formal_Charge is 0,Complexity is 84.2,Isotope_Atom_Count is 0,Defined_Atom_Stereocenter_Count is 0,Undefined_Atom_Stereocenter_Count is 0,Defined_Bond_Stereocenter_Count is 0,Undefined_Bond_Stereocenter_Count is 0,Covalently_Bonded_Unit_Count is 1,Compound_Is_Canonicalized is Yes,Physical_Description is Liquid;[MerckIndex]Clearlightyellowliquid;[Sigma-AldrichMSDS]"
ethyl formate,CCOC=O,-2.56,-3.867,"cid is 7047,compound_name is Quinoline,cid_paras is 7047,Molecular_Weight is 129.16,XLogP3 is 2,Hydrogen_Bond_Donor_Count is 0,Hydrogen_Bond_Acceptor_Count is 1,Rotatable_Bond_Count is 0,Exact_Mass is 129.057849228,Monoisotopic_Mass is 129.057849228,Topological_Polar_Surface_Area is 12.9,""Unit"":""Å²"",Heavy_Atom_Count is 10,Formal_Charge is 0,Complexity is 111,Isotope_Atom_Count is 0,Defined_Atom_Stereocenter_Count is 0,Undefined_Atom_Stereocenter_Count is 0,Defined_Bond_Stereocenter_Count is 0,Undefined_Bond_Stereocenter_Count is 0,Covalently_Bonded_Unit_Count is 1,Compound_Is_Canonicalized is Yes,Physical_Description is Quinolineappearsasacolorlessliquidwithapeculiarodor.Slightlydenserthanwater.Contactmayirritatetoskin,eyes,andmucousmembranes.Maybetoxicbyingestion.Usedtomakeotherchemicals."",""Markup"":[{""Start"":0,""Length"":9,""URL"":""https://pubchem.ncbi.nlm.nih.gov/compound/Quinoline"",""Type"":""PubChemInternalLink"",""Extra"":""CID-7047"",Color/Form is COLORLESSTOBROWN/SRP:TECHNICALGRADE/,Odor is Penetratingodor,notasoffensiveaspyridine"",""Markup"":[{""Start"":38,""Length"":8,""URL"":""https://pubchem.ncbi.nlm.nih.gov/compound/pyridine"",""Type"":""PubChemInternalLink"",""Extra"":""CID-1049,Boiling_Point is 460°Fat760mmHg(NTP,1992),Melting_Point is 5°F(NTP,1992),Flash_Point is 138°F(NFPA,2010),Solubility is 12.4[ug/mL](ThemeanoftheresultsatpH7.4),Density is 1.095at68°F(USCG,1999)-Denserthanwater;willsink"",""Markup"":[{""Start"":42,""Length"":5,""URL"":""https://pubchem.ncbi.nlm.nih.gov/compound/water"",""Type"":""PubChemInternalLink"",""Extra"":""CID-962"
"1,2,4,5-tetrachlorobenzene",c1c(c(cc(c1Cl)Cl)Cl)Cl,-1.34,0.035,"cid is 6343,compound_name is Ethanethiol,cid_paras is 6343,Molecular_Weight is 62.14,XLogP3 is 0.9,Hydrogen_Bond_Donor_Count is 1,Hydrogen_Bond_Acceptor_Count is 1,Rotatable_Bond_Count is 0,Exact_Mass is 62.01902136,Monoisotopic_Mass is 62.01902136,Topological_Polar_Surface_Area is 1,""Unit"":""Å²"",Heavy_Atom_Count is 3,Formal_Charge is 0,Complexity is 2.8,Isotope_Atom_Count is 0,Defined_Atom_Stereocenter_Count is 0,Undefined_Atom_Stereocenter_Count is 0,Defined_Bond_Stereocenter_Count is 0,Undefined_Bond_Stereocenter_Count is 0,Covalently_Bonded_Unit_Count is 1,Compound_Is_Canonicalized is Yes,Physical_Description is Ethylmercaptanappearsasaclearcolorlesslow-boilingliquid(boilingpoint97°F)withanoverpowering,garlic-like/skunk-likeodor.Flashpoint-55°F.Lessdensethanwaterandveryslightlysolubleinwater.Vaporsareheavierthanair.Vaporsmayirritatenoseandthroat.Maybetoxicifswallowed,byinhalationorbycontact.Addedtonaturalgasasanodorant.Usedasastabilizerforadhesives."",""Markup"":[{""Start"":0,""Length"":15,""URL"":""https://pubchem.ncbi.nlm.nih.gov/compound/Ethyl%20mercaptan"",""Type"":""PubChemInternalLink"",""Extra"":""CID-6343"",Color/Form is Colorlessliquid[Note:Agasabove95degreesF].,Odor is Leek-likeodor,Boiling_Point is 93.9°Fat760mmHg(USCG,1999),Melting_Point is -234°F(USCG,1999),Flash_Point is lessthan0°F(USCG,1999),Solubility is 0.7%(NIOSH,2024),Density is 0.826at68°F(USCG,1999)-Lessdensethanwater;willfloat"",""Markup"":[{""Start"":46,""Length"":5,""URL"":""https://pubchem.ncbi.nlm.nih.gov/compound/water"",""Type"":""PubChemInternalLink"",""Extra"":""CID-962"
diethoxymethoxybenzene,CCOC(OCC)Oc1ccccc1,-5.23,-5.203,"cid is 8077,compound_name is Diethyl disulfide,cid_paras is 8077,Molecular_Weight is 122.3,XLogP3 is 1.6,Hydrogen_Bond_Donor_Count is 0,Hydrogen_Bond_Acceptor_Count is 2,Rotatable_Bond_Count is 3,Exact_Mass is 122.02239267,Monoisotopic_Mass is 122.02239267,Topological_Polar_Surface_Area is 50.6,""Unit"":""Å²"",Heavy_Atom_Count is 6,Formal_Charge is 0,Complexity is 17.5,Isotope_Atom_Count is 0,Defined_Atom_Stereocenter_Count is 0,Undefined_Atom_Stereocenter_Count is 0,Defined_Bond_Stereocenter_Count is 0,Undefined_Bond_Stereocenter_Count is 0,Covalently_Bonded_Unit_Count is 1,Compound_Is_Canonicalized is Yes,Physical_Description is Liquid,Boiling_Point is 152.00°C.@760.00mmHg,Melting_Point is -101.5°C,Solubility is 0.3mg/mLat25°C,Density is 0.990-0.996"
3-nitrophenol,c1cc(cc(c1)O)[N+](=O)[O-],-9.62,-7.889,"cid is 8030,compound_name is Thiophene,cid_paras is 8030,Molecular_Weight is 84.14,XLogP3 is 1.8,Hydrogen_Bond_Donor_Count is 0,Hydrogen_Bond_Acceptor_Count is 1,Rotatable_Bond_Count is 0,Exact_Mass is 84.00337130,Monoisotopic_Mass is 84.00337130,Topological_Polar_Surface_Area is 28.2,""Unit"":""Å²"",Heavy_Atom_Count is 5,Formal_Charge is 0,Complexity is 22.8,Isotope_Atom_Count is 0,Defined_Atom_Stereocenter_Count is 0,Undefined_Atom_Stereocenter_Count is 0,Defined_Bond_Stereocenter_Count is 0,Undefined_Bond_Stereocenter_Count is 0,Covalently_Bonded_Unit_Count is 1,Compound_Is_Canonicalized is Yes,Physical_Description is Thiopheneappearsasacolorlessliquidwithanunpleasantodor.Insolubleinwaterandslightlydenserthanwater.Flashpoint30°F.Vaporsheavierthanair.Irritatestheskin,eyes,andmucousmembranes.Usedtomakepharmaceuticalsanddyes."",""Markup"":[{""Start"":0,""Length"":9,""URL"":""https://pubchem.ncbi.nlm.nih.gov/compound/Thiophene"",""Type"":""PubChemInternalLink"",""Extra"":""CID-8030"",Color/Form is COLORLESSLIQUID,Odor is SLIGHTAROMATICODORRESEMBLINGBENZENE"",""Markup"":[{""Start"":32,""Length"":7,""URL"":""https://pubchem.ncbi.nlm.nih.gov/compound/BENZENE"",""Type"":""PubChemInternalLink"",""Extra"":""CID-241,Boiling_Point is 183.9°Fat760mmHg(NTP,1992),Melting_Point is -36.8°F(NTP,1992),Flash_Point is 30°F(NTP,1992),Solubility is lessthan1mg/mLat75°F(NTP,1992),Density is 1.0649at68°F(NTP,1992)-Denserthanwater;willsink"",""Markup"":[{""Start"":42,""Length"":5,""URL"":""https://pubchem.ncbi.nlm.nih.gov/compound/water"",""Type"":""PubChemInternalLink"",""Extra"":""CID-962"
octan-1-ol,CCCCCCCCO,-4.09,-2.69,"cid is 14315,compound_name is 1-Ethylnaphthalene,cid_paras is 14315,Molecular_Weight is 156.22,XLogP3 is 4.4,Hydrogen_Bond_Donor_Count is 0,Hydrogen_Bond_Acceptor_Count is 0,Rotatable_Bond_Count is 1,Exact_Mass is 156.093900383,Monoisotopic_Mass is 156.093900383,Topological_Polar_Surface_Area is 0,""Unit"":""Å²"",Heavy_Atom_Count is 12,Formal_Charge is 0,Complexity is 139,Isotope_Atom_Count is 0,Defined_Atom_Stereocenter_Count is 0,Undefined_Atom_Stereocenter_Count is 0,Defined_Bond_Stereocenter_Count is 0,Undefined_Bond_Stereocenter_Count is 0,Covalently_Bonded_Unit_Count is 1,Compound_Is_Canonicalized is Yes"
but-1-ene,CCC=C,1.38,2.367,"cid is 7895,compound_name is 2-Pentanone,cid_paras is 7895,Molecular_Weight is 86.13,XLogP3 is 0.9,Hydrogen_Bond_Donor_Count is 0,Hydrogen_Bond_Acceptor_Count is 1,Rotatable_Bond_Count is 2,Exact_Mass is 86.073164938,Monoisotopic_Mass is 86.073164938,Topological_Polar_Surface_Area is 17.1,""Unit"":""Å²"",Heavy_Atom_Count is 6,Formal_Charge is 0,Complexity is 47.9,Isotope_Atom_Count is 0,Defined_Atom_Stereocenter_Count is 0,Undefined_Atom_Stereocenter_Count is 0,Defined_Bond_Stereocenter_Count is 0,Undefined_Bond_Stereocenter_Count is 0,Covalently_Bonded_Unit_Count is 1,Compound_Is_Canonicalized is Yes,Physical_Description is Methylpropylketoneappearsasaclearcolorlessliquidwiththeodoroffingernailpolish.Flashpoint45°F.Lessdensethanwaterandsolubleinwater.Hencefloatsonwater.Density0.809g/cm3.Vaporsheavierthanair."",""Markup"":[{""Start"":0,""Length"":20,""URL"":""https://pubchem.ncbi.nlm.nih.gov/compound/Methyl%20propyl%20ketone"",""Type"":""PubChemInternalLink"",""Extra"":""CID-7895"",Color/Form is Colorlessliquid,Odor is Characteristicacetone-likeodor"",""Markup"":[{""Start"":15,""Length"":7,""URL"":""https://pubchem.ncbi.nlm.nih.gov/compound/acetone"",""Type"":""PubChemInternalLink"",""Extra"":""CID-180,Boiling_Point is 212to214°Fat760mmHg(NTP,1992),Melting_Point is -108°F(NTP,1992),Flash_Point is 45°F(NTP,1992),Solubility is 10to50mg/mLat72°F(NTP,1992),Density is 0.809at68°F(USCG,1999)-Lessdensethanwater;willfloat"",""Markup"":[{""Start"":46,""Length"":5,""URL"":""https://pubchem.ncbi.nlm.nih.gov/compound/water"",""Type"":""PubChemInternalLink"",""Extra"":""CID-962"
carbon tetrachloride,C(Cl)(Cl)(Cl)Cl,0.08,1.185,"cid is 39253,compound_name is 2,2',3,3',4,4',5,6'-Octachlorobiphenyl,cid_paras is 39253,Molecular_Weight is 429.8,XLogP3 is 8.2,Hydrogen_Bond_Donor_Count is 0,Hydrogen_Bond_Acceptor_Count is 0,Rotatable_Bond_Count is 1,Exact_Mass is 429.760571,Monoisotopic_Mass is 425.766472,Topological_Polar_Surface_Area is 0,""Unit"":""Å²"",Heavy_Atom_Count is 20,Formal_Charge is 0,Complexity is 339,Isotope_Atom_Count is 0,Defined_Atom_Stereocenter_Count is 0,Undefined_Atom_Stereocenter_Count is 0,Defined_Bond_Stereocenter_Count is 0,Undefined_Bond_Stereocenter_Count is 0,Covalently_Bonded_Unit_Count is 1,Compound_Is_Canonicalized is Yes"
2-phenylethanol,c1ccc(cc1)CCO,-6.79,-5.28,"cid is 33500,compound_name is Profluralin,cid_paras is 33500,Molecular_Weight is 347.29,XLogP3 is 5.2,Hydrogen_Bond_Donor_Count is 0,Hydrogen_Bond_Acceptor_Count is 8,Rotatable_Bond_Count is 5,Exact_Mass is 347.10929049,Monoisotopic_Mass is 347.10929049,Topological_Polar_Surface_Area is 94.9,""Unit"":""Å²"",Heavy_Atom_Count is 24,Formal_Charge is 0,Complexity is 449,Isotope_Atom_Count is 0,Defined_Atom_Stereocenter_Count is 0,Undefined_Atom_Stereocenter_Count is 0,Defined_Bond_Stereocenter_Count is 0,Undefined_Bond_Stereocenter_Count is 0,Covalently_Bonded_Unit_Count is 1,Compound_Is_Canonicalized is Yes,Physical_Description is Yellow-orangesolid;mp=32.1-32.5degC;[HSDB]Lightorangesolid;mp=33-36degC;[MSDSonline],Color/Form is Yellow-orangecrystals,Odor is NOAPPRECIABLEODOR,Melting_Point is 32.1to32.5°C,Solubility is O.1PPMINWATERAT27°C;GREATERTHAN1G/GOFACETONE"",""Markup"":[{""Start"":11,""Length"":5,""URL"":""https://pubchem.ncbi.nlm.nih.gov/compound/WATER"",""Type"":""PubChemInternalLink"",""Extra"":""CID-962"",Density is 1.38at20°C"
fenuron,CN(C)C(=O)Nc1ccccc1,-9.13,-11.81,"cid is 176,compound_name is Acetic Acid,cid_paras is 176,Molecular_Weight is 60.05,XLogP3 is -0.2,Hydrogen_Bond_Donor_Count is 1,Hydrogen_Bond_Acceptor_Count is 2,Rotatable_Bond_Count is 0,Exact_Mass is 60.021129366,Monoisotopic_Mass is 60.021129366,Topological_Polar_Surface_Area is 37.3,""Unit"":""Å²"",Heavy_Atom_Count is 4,Formal_Charge is 0,Complexity is 31,Isotope_Atom_Count is 0,Defined_Atom_Stereocenter_Count is 0,Undefined_Atom_Stereocenter_Count is 0,Defined_Bond_Stereocenter_Count is 0,Undefined_Bond_Stereocenter_Count is 0,Covalently_Bonded_Unit_Count is 1,Compound_Is_Canonicalized is Yes,Physical_Description is Aceticacid,glacialappearsasaclearcolorlessliquidwithastrongodorofvinegar.Flashpoint104°F.Density8.8lb/gal.Corrosivetometalsandtissue.Usedtomakeotherchemicals,asafoodadditive,andinpetroleumproduction."",""Markup"":[{""Start"":0,""Length"":11,""URL"":""https://pubchem.ncbi.nlm.nih.gov/compound/Acetic%20acid"",""Type"":""PubChemInternalLink"",""Extra"":""CID-176"",Color/Form is Clear,colorlessliquid,Odor is Pungent,Boiling_Point is 244°Fat760mmHg(NTP,1992),Melting_Point is 61.9°F(NTP,1992),Flash_Point is 104°F(NTP,1992),Solubility is greaterthanorequalto100mg/mLat73°F(NTP,1992),Density is 1.051at68°F(USCG,1999)-Denserthanwater;willsink"",""Markup"":[{""Start"":42,""Length"":5,""URL"":""https://pubchem.ncbi.nlm.nih.gov/compound/water"",""Type"":""PubChemInternalLink"",""Extra"":""CID-962"