iupac,smiles,expt,calc,Description
nitrobenzene,c1ccc(cc1)[N+](=O)[O-],-4.12,-3.46,"cid is 178,compound_name is Acetamide,cid_paras is 178,Molecular_Weight is 59.07,XLogP3 is -0.9,Hydrogen_Bond_Donor_Count is 1,Hydrogen_Bond_Acceptor_Count is 1,Rotatable_Bond_Count is 0,Exact_Mass is 59.037113783,Monoisotopic_Mass is 59.037113783,Topological_Polar_Surface_Area is 43.1,""Unit"":""Å²"",Heavy_Atom_Count is 4,Formal_Charge is 0,Complexity is 33,Isotope_Atom_Count is 0,Defined_Atom_Stereocenter_Count is 0,Undefined_Atom_Stereocenter_Count is 0,Defined_Bond_Stereocenter_Count is 0,Undefined_Bond_Stereocenter_Count is 0,Covalently_Bonded_Unit_Count is 1,Compound_Is_Canonicalized is Yes,Physical_Description is Acetamideappearsascolorlesscrystalswithamousyodor(NTP,1999).Lowtoxicity."",""Markup"":[{""Start"":0,""Length"":9,""URL"":""https://pubchem.ncbi.nlm.nih.gov/compound/Acetamide"",""Type"":""PubChemInternalLink"",""Extra"":""CID-178,Color/Form is Deliquescenthexagonalcrystals,Odor is Odorlesswhenpure,butfrequentlyhasamousyodor,Boiling_Point is 430°Fat760mmHg(NTP,1992),Melting_Point is 180.1°F(NTP,1992),Solubility is Verysoluble(greaterthanorequalto100mg/mLat72°F)(NTP,1992),Density is 1.159at68°F(NTP,1992)-Denserthanwater;willsink"",""Markup"":[{""Start"":41,""Length"":5,""URL"":""https://pubchem.ncbi.nlm.nih.gov/compound/water"",""Type"":""PubChemInternalLink"",""Extra"":""CID-962"
"(2S,5R)-2-isopropyl-5-methylcyclohexanone",C[C@@H]1CC[C@H](C(=O)C1)C(C)C,-2.53,-3.523,"cid is 6497,compound_name is Dimethyl Sulfate,cid_paras is 6497,Molecular_Weight is 126.13,XLogP3 is -0.3,Hydrogen_Bond_Donor_Count is 0,Hydrogen_Bond_Acceptor_Count is 4,Rotatable_Bond_Count is 2,Exact_Mass is 125.99867984,Monoisotopic_Mass is 125.99867984,Topological_Polar_Surface_Area is 61,""Unit"":""Å²"",Heavy_Atom_Count is 7,Formal_Charge is 0,Complexity is 107,Isotope_Atom_Count is 0,Defined_Atom_Stereocenter_Count is 0,Undefined_Atom_Stereocenter_Count is 0,Defined_Bond_Stereocenter_Count is 0,Undefined_Bond_Stereocenter_Count is 0,Covalently_Bonded_Unit_Count is 1,Compound_Is_Canonicalized is Yes,Physical_Description is Dimethylsulfateisacolorlessoilyliquid,odorlesstoafaintonion-likeodor.Itisverytoxicbyinhalation.Itisacombustibleliquidandhasaflashpointof182°F.Itisslightlysolubleinwateranddecomposedbywatertogivesulfuricacidwithevolutionofheat.Itiscorrosivetometalsandtissue.Itisapotentmethylatingagent."",""Markup"":[{""Start"":0,""Length"":16,""URL"":""https://pubchem.ncbi.nlm.nih.gov/compound/Dimethyl%20sulfate"",""Type"":""PubChemInternalLink"",""Extra"":""CID-6497"",Color/Form is Colorlessoilyliquid,Odor is Essentiallyodorless,Boiling_Point is About370°F(withdecomposition)(EPA,1998),Melting_Point is -25.15°F(EPA,1998),Flash_Point is 182°F(EPA,1998),Solubility is 3%at64°F(NIOSH,2024),Density is 1.3283at68°F(EPA,1998)-Denserthanwater;willsink"",""Markup"":[{""Start"":42,""Length"":5,""URL"":""https://pubchem.ncbi.nlm.nih.gov/compound/water"",""Type"":""PubChemInternalLink"",""Extra"":""CID-962"
"(2R,3R,4S,5S,6R)-6-(hydroxymethyl)tetrahydropyran-2,3,4,5-tetrol",C([C@@H]1[C@H]([C@@H]([C@H]([C@@H](O1)O)O)O)O)O,-25.47,-18.095,"cid is 6591,compound_name is 1,1,2,2-Tetrachloroethane,cid_paras is 6591,Molecular_Weight is 167.8,XLogP3 is 2.4,Hydrogen_Bond_Donor_Count is 0,Hydrogen_Bond_Acceptor_Count is 0,Rotatable_Bond_Count is 1,Exact_Mass is 167.888111,Monoisotopic_Mass is 165.891061,Topological_Polar_Surface_Area is 0,""Unit"":""Å²"",Heavy_Atom_Count is 6,Formal_Charge is 0,Complexity is 26.5,Isotope_Atom_Count is 0,Defined_Atom_Stereocenter_Count is 0,Undefined_Atom_Stereocenter_Count is 0,Defined_Bond_Stereocenter_Count is 0,Undefined_Bond_Stereocenter_Count is 0,Covalently_Bonded_Unit_Count is 1,Compound_Is_Canonicalized is Yes,Physical_Description is 1,1,2,2-tetrachloroethaneisacolorlesstopaleyellowliquidwithasweetodor.Sinksinwater.(USCG,1999)"",""Markup"":[{""Start"":0,""Length"":25,""URL"":""https://pubchem.ncbi.nlm.nih.gov/compound/1%2C1%2C2%2C2-tetrachloroethane"",""Type"":""PubChemInternalLink"",""Extra"":""CID-6591"",Color/Form is Colorlessliquid,Odor is Sweetishsuffocatingchloroform-likeodor"",""Markup"":[{""Start"":21,""Length"":10,""URL"":""https://pubchem.ncbi.nlm.nih.gov/compound/chloroform"",""Type"":""PubChemInternalLink"",""Extra"":""CID-6212,Boiling_Point is 295°Fat760mmHg(NTP,1992),Melting_Point is -33°F(NTP,1992),Solubility is lessthan0.1mg/mLat72°F(NTP,1992),Density is 1.595at68°F(USCG,1999)-Denserthanwater;willsink"",""Markup"":[{""Start"":42,""Length"":5,""URL"":""https://pubchem.ncbi.nlm.nih.gov/compound/water"",""Type"":""PubChemInternalLink"",""Extra"":""CID-962"
fluoromethane,CF,-0.22,0.881,"cid is 20748,compound_name is Methyl cyclohexanecarboxylate,cid_paras is 20748,Molecular_Weight is 142.20,XLogP3 is 2.2,Hydrogen_Bond_Donor_Count is 0,Hydrogen_Bond_Acceptor_Count is 2,Rotatable_Bond_Count is 2,Exact_Mass is 142.099379685,Monoisotopic_Mass is 142.099379685,Topological_Polar_Surface_Area is 26.3,""Unit"":""Å²"",Heavy_Atom_Count is 10,Formal_Charge is 0,Complexity is 114,Isotope_Atom_Count is 0,Defined_Atom_Stereocenter_Count is 0,Undefined_Atom_Stereocenter_Count is 0,Defined_Bond_Stereocenter_Count is 0,Undefined_Bond_Stereocenter_Count is 0,Covalently_Bonded_Unit_Count is 1,Compound_Is_Canonicalized is Yes,Physical_Description is Clearcolorlessliquid;[Sigma-AldrichMSDS],Boiling_Point is 183.00°C.@760.00mmHg,Solubility is Insolubleinwater;miscibleinfat"",""Markup"":[{""Start"":13,""Length"":5,""URL"":""https://pubchem.ncbi.nlm.nih.gov/compound/water"",""Type"":""PubChemInternalLink"",""Extra"":""CID-962,Density is 0.990-0.999"
methylsulfinylmethane,CS(=O)C,-9.28,-8.243,"cid is 8101,compound_name is 1-Bromohexane,cid_paras is 8101,Molecular_Weight is 165.07,XLogP3 is 3.8,Hydrogen_Bond_Donor_Count is 0,Hydrogen_Bond_Acceptor_Count is 0,Rotatable_Bond_Count is 4,Exact_Mass is 164.02006,Monoisotopic_Mass is 164.02006,Topological_Polar_Surface_Area is 0,""Unit"":""Å²"",Heavy_Atom_Count is 7,Formal_Charge is 0,Complexity is 27.4,Isotope_Atom_Count is 0,Defined_Atom_Stereocenter_Count is 0,Undefined_Atom_Stereocenter_Count is 0,Defined_Bond_Stereocenter_Count is 0,Undefined_Bond_Stereocenter_Count is 0,Covalently_Bonded_Unit_Count is 1,Compound_Is_Canonicalized is Yes,Physical_Description is Colorlessliquidwithapleasantodor;[AlfaAesarMSDS]"
dibenzo-p-dioxin,c1ccc2c(c1)Oc3ccccc3O2,-3.15,-4.9,"cid is 12369,compound_name is 1-Bromoheptane,cid_paras is 12369,Molecular_Weight is 179.10,XLogP3 is 4.4,Hydrogen_Bond_Donor_Count is 0,Hydrogen_Bond_Acceptor_Count is 0,Rotatable_Bond_Count is 5,Exact_Mass is 178.03571,Monoisotopic_Mass is 178.03571,Topological_Polar_Surface_Area is 0,""Unit"":""Å²"",Heavy_Atom_Count is 8,Formal_Charge is 0,Complexity is 35.4,Isotope_Atom_Count is 0,Defined_Atom_Stereocenter_Count is 0,Undefined_Atom_Stereocenter_Count is 0,Defined_Bond_Stereocenter_Count is 0,Undefined_Bond_Stereocenter_Count is 0,Covalently_Bonded_Unit_Count is 1,Compound_Is_Canonicalized is Yes,Physical_Description is Colorlessliquid;[AlfaAesarMSDS]"
2-methylaniline,Cc1ccccc1N,-5.53,-5.325,"cid is 37207,compound_name is 1-Chlorodibenzo-p-dioxin,cid_paras is 37207,Molecular_Weight is 218.63,XLogP3 is 5,Hydrogen_Bond_Donor_Count is 0,Hydrogen_Bond_Acceptor_Count is 2,Rotatable_Bond_Count is 0,Exact_Mass is 218.0134572,Monoisotopic_Mass is 218.0134572,Topological_Polar_Surface_Area is 18.5,""Unit"":""Å²"",Heavy_Atom_Count is 15,Formal_Charge is 0,Complexity is 234,Isotope_Atom_Count is 0,Defined_Atom_Stereocenter_Count is 0,Undefined_Atom_Stereocenter_Count is 0,Defined_Bond_Stereocenter_Count is 0,Undefined_Bond_Stereocenter_Count is 0,Covalently_Bonded_Unit_Count is 1,Compound_Is_Canonicalized is Yes"
1-bromobutane,CCCCBr,-0.4,0.705,"cid is 637146,compound_name is (+)-2-Chlorobutane,cid_paras is 637146,Molecular_Weight is 92.57,XLogP3 is 2.3,Hydrogen_Bond_Donor_Count is 0,Hydrogen_Bond_Acceptor_Count is 0,Rotatable_Bond_Count is 1,Exact_Mass is 92.0392780,Monoisotopic_Mass is 92.0392780,Topological_Polar_Surface_Area is 0,""Unit"":""Å²"",Heavy_Atom_Count is 5,Formal_Charge is 0,Complexity is 19.6,Isotope_Atom_Count is 0,Defined_Atom_Stereocenter_Count is 1,Undefined_Atom_Stereocenter_Count is 0,Defined_Bond_Stereocenter_Count is 0,Undefined_Bond_Stereocenter_Count is 0,Covalently_Bonded_Unit_Count is 1,Compound_Is_Canonicalized is Yes"
nonan-1-ol,CCCCCCCCCO,-3.88,-2.564,"cid is 14109,compound_name is Hexylbenzene,cid_paras is 14109,Molecular_Weight is 162.27,XLogP3 is 5.5,Hydrogen_Bond_Donor_Count is 0,Hydrogen_Bond_Acceptor_Count is 0,Rotatable_Bond_Count is 5,Exact_Mass is 162.140850574,Monoisotopic_Mass is 162.140850574,Topological_Polar_Surface_Area is 0,""Unit"":""Å²"",Heavy_Atom_Count is 12,Formal_Charge is 0,Complexity is 90.2,Isotope_Atom_Count is 0,Defined_Atom_Stereocenter_Count is 0,Undefined_Atom_Stereocenter_Count is 0,Defined_Bond_Stereocenter_Count is 0,Undefined_Bond_Stereocenter_Count is 0,Covalently_Bonded_Unit_Count is 1,Compound_Is_Canonicalized is Yes,Physical_Description is Clearcolorlessliquid;[MSDSonline]"
4-methylpyridine,Cc1ccncc1,-4.93,-3.343,"cid is 53479,compound_name is 2-Chlorosyringaldehyde,cid_paras is 53479,Molecular_Weight is 216.62,XLogP3 is 1.6,Hydrogen_Bond_Donor_Count is 1,Hydrogen_Bond_Acceptor_Count is 4,Rotatable_Bond_Count is 3,Exact_Mass is 216.0189365,Monoisotopic_Mass is 216.0189365,Topological_Polar_Surface_Area is 55.8,""Unit"":""Å²"",Heavy_Atom_Count is 14,Formal_Charge is 0,Complexity is 199,Isotope_Atom_Count is 0,Defined_Atom_Stereocenter_Count is 0,Undefined_Atom_Stereocenter_Count is 0,Defined_Bond_Stereocenter_Count is 0,Undefined_Bond_Stereocenter_Count is 0,Covalently_Bonded_Unit_Count is 1,Compound_Is_Canonicalized is Yes"
"1,1,2,2-tetrachloroethylene",C(=C(Cl)Cl)(Cl)Cl,0.1,1.328,"cid is 223106,compound_name is 1,3-Bis(trifluoromethyl)benzene,cid_paras is 223106,Molecular_Weight is 214.11,XLogP3 is 3.8,Hydrogen_Bond_Donor_Count is 0,Hydrogen_Bond_Acceptor_Count is 6,Rotatable_Bond_Count is 0,Exact_Mass is 214.02171910,Monoisotopic_Mass is 214.02171910,Topological_Polar_Surface_Area is 0,""Unit"":""Å²"",Heavy_Atom_Count is 14,Formal_Charge is 0,Complexity is 171,Isotope_Atom_Count is 0,Defined_Atom_Stereocenter_Count is 0,Undefined_Atom_Stereocenter_Count is 0,Defined_Bond_Stereocenter_Count is 0,Undefined_Bond_Stereocenter_Count is 0,Covalently_Bonded_Unit_Count is 1,Compound_Is_Canonicalized is Yes"
2-bromo-2-methyl-propane,CC(C)(C)Br,0.84,0.438,"cid is 77918,compound_name is 1-Benzylimidazole,cid_paras is 77918,Molecular_Weight is 158.20,XLogP3 is 1.6,Hydrogen_Bond_Donor_Count is 0,Hydrogen_Bond_Acceptor_Count is 1,Rotatable_Bond_Count is 2,Exact_Mass is 158.084398327,Monoisotopic_Mass is 158.084398327,Topological_Polar_Surface_Area is 17.8,""Unit"":""Å²"",Heavy_Atom_Count is 12,Formal_Charge is 0,Complexity is 130,Isotope_Atom_Count is 0,Defined_Atom_Stereocenter_Count is 0,Undefined_Atom_Stereocenter_Count is 0,Defined_Bond_Stereocenter_Count is 0,Undefined_Bond_Stereocenter_Count is 0,Covalently_Bonded_Unit_Count is 1,Compound_Is_Canonicalized is Yes,Physical_Description is Whiteorcreamcoloredcrystallinepowder;[AlfaAesarMSDS],Boiling_Point is 310,""Unit"":""°C"",Melting_Point is 68-70°C"
"1,1-diphenylethene",C=C(c1ccccc1)c2ccccc2,-2.78,-2.47,"cid is 8640,compound_name is 1-Naphthylamine,cid_paras is 8640,Molecular_Weight is 143.18,XLogP3 is 2.2,Hydrogen_Bond_Donor_Count is 1,Hydrogen_Bond_Acceptor_Count is 1,Rotatable_Bond_Count is 0,Exact_Mass is 143.073499291,Monoisotopic_Mass is 143.073499291,Topological_Polar_Surface_Area is 26,""Unit"":""Å²"",Heavy_Atom_Count is 11,Formal_Charge is 0,Complexity is 133,Isotope_Atom_Count is 0,Defined_Atom_Stereocenter_Count is 0,Undefined_Atom_Stereocenter_Count is 0,Defined_Bond_Stereocenter_Count is 0,Undefined_Bond_Stereocenter_Count is 0,Covalently_Bonded_Unit_Count is 1,Compound_Is_Canonicalized is Yes,Physical_Description is Alpha-naphthylamineappearsasacrystallinesolidorasoliddissolvedinaliquid.Insolubleinwateranddenserthanwater.Contactmayslightlyirritateskin,eyesandmucousmembranes.Maybeslightlytoxicbyingestion.Usedtomakeotherchemicals."",""Markup"":[{""Start"":0,""Length"":19,""URL"":""https://pubchem.ncbi.nlm.nih.gov/compound/Alpha-naphthylamine"",""Type"":""PubChemInternalLink"",""Extra"":""CID-8640"",Color/Form is Needlesfromethanol(aq)orether"",""Markup"":[{""Start"":13,""Length"":7,""URL"":""https://pubchem.ncbi.nlm.nih.gov/compound/ethanol"",""Type"":""PubChemInternalLink"",""Extra"":""CID-702,Odor is Ammonia-likeodor.,Boiling_Point is 574°Fat760mmHg(NTP,1992),Melting_Point is 122°F(NTP,1992),Flash_Point is 315°F(NTP,1992),Solubility is lessthan1mg/mLat66°F(NTP,1992),Density is 1.12at77°F(USCG,1999)-Denserthanwater;willsink"",""Markup"":[{""Start"":41,""Length"":5,""URL"":""https://pubchem.ncbi.nlm.nih.gov/compound/water"",""Type"":""PubChemInternalLink"",""Extra"":""CID-962"
1-ethyl-4-methyl-benzene,CCc1ccc(cc1)C,-0.95,-0.575,"cid is 7761,compound_name is Diethyl malonate,cid_paras is 7761,Molecular_Weight is 160.17,XLogP3 is 1,Hydrogen_Bond_Donor_Count is 0,Hydrogen_Bond_Acceptor_Count is 4,Rotatable_Bond_Count is 6,Exact_Mass is 160.07355886,Monoisotopic_Mass is 160.07355886,Topological_Polar_Surface_Area is 52.6,""Unit"":""Å²"",Heavy_Atom_Count is 11,Formal_Charge is 0,Complexity is 125,Isotope_Atom_Count is 0,Defined_Atom_Stereocenter_Count is 0,Undefined_Atom_Stereocenter_Count is 0,Defined_Bond_Stereocenter_Count is 0,Undefined_Bond_Stereocenter_Count is 0,Covalently_Bonded_Unit_Count is 1,Compound_Is_Canonicalized is Yes,Physical_Description is Liquid,OtherSolid;Liquid,Color/Form is Colorlessliquid,Odor is Sweetesterodor,Boiling_Point is 200°C,Melting_Point is -50°C,Flash_Point is 200°F(93°C)(opencup),Solubility is Inwater,20g/Lat20°C,Density is 1.0551g/cucmat20°C"
3-methylpyridine,Cc1cccnc1,-4.77,-3.221,"cid is 13004,compound_name is Cyclopropyl methyl ketone,cid_paras is 13004,Molecular_Weight is 84.12,XLogP3 is 0.5,Hydrogen_Bond_Donor_Count is 0,Hydrogen_Bond_Acceptor_Count is 1,Rotatable_Bond_Count is 1,Exact_Mass is 84.057514874,Monoisotopic_Mass is 84.057514874,Topological_Polar_Surface_Area is 17.1,""Unit"":""Å²"",Heavy_Atom_Count is 6,Formal_Charge is 0,Complexity is 72,Isotope_Atom_Count is 0,Defined_Atom_Stereocenter_Count is 0,Undefined_Atom_Stereocenter_Count is 0,Defined_Bond_Stereocenter_Count is 0,Undefined_Bond_Stereocenter_Count is 0,Covalently_Bonded_Unit_Count is 1,Compound_Is_Canonicalized is Yes,Physical_Description is Colorlessliquid;[AlfaAesarMSDS]"
"1,1,1,2-tetramethoxyethane",COCC(OC)(OC)OC,-5.73,-5.436,"cid is 8027,compound_name is Pyrrole,cid_paras is 8027,Molecular_Weight is 67.09,XLogP3 is 0.7,Hydrogen_Bond_Donor_Count is 1,Hydrogen_Bond_Acceptor_Count is 0,Rotatable_Bond_Count is 0,Exact_Mass is 67.042199164,Monoisotopic_Mass is 67.042199164,Topological_Polar_Surface_Area is 15.8,""Unit"":""Å²"",Heavy_Atom_Count is 5,Formal_Charge is 0,Complexity is 22.8,Isotope_Atom_Count is 0,Defined_Atom_Stereocenter_Count is 0,Undefined_Atom_Stereocenter_Count is 0,Defined_Bond_Stereocenter_Count is 0,Undefined_Bond_Stereocenter_Count is 0,Covalently_Bonded_Unit_Count is 1,Compound_Is_Canonicalized is Yes,Physical_Description is Colorlessliquidwithanagreeableodorlikechloroform;Darkensonstandingifoxygennotcompletelyremoved;[MerckIndex]Yellowishorbrownliquid;Turnsbrownwhenpolymerizedbylight;[Hawley]Hygroscopic;[HSDB]Colorlessliquid;[MSDSonline]"",""Markup"":[{""Start"":45,""Length"":10,""URL"":""https://pubchem.ncbi.nlm.nih.gov/compound/chloroform"",""Type"":""PubChemInternalLink"",""Extra"":""CID-6212"",Color/Form is Colorlessliquidwhenfresh,Odor is Agreeableempyreumaticodorresemblingthatofchloroform"",""Markup"":[{""Start"":47,""Length"":10,""URL"":""https://pubchem.ncbi.nlm.nih.gov/compound/chloroform"",""Type"":""PubChemInternalLink"",""Extra"":""CID-6212,Boiling_Point is 129.7°C,Melting_Point is -23.4°C,Flash_Point is 102°F(39°C)(CLOSEDCUP),Solubility is Solubleinalcohol,etheranddiluteacids.Alsosolubleinmostorganicchemicals.,Density is 0.9698@20°C"
9H-fluorene,c1ccc-2c(c1)Cc3c2cccc3,-3.35,-4.269,"cid is 3059,compound_name is Diflunisal,cid_paras is 3059,Molecular_Weight is 250.20,XLogP3 is 4.4,Hydrogen_Bond_Donor_Count is 2,Hydrogen_Bond_Acceptor_Count is 5,Rotatable_Bond_Count is 2,Exact_Mass is 250.04415044,Monoisotopic_Mass is 250.04415044,Topological_Polar_Surface_Area is 57.5,""Unit"":""Å²"",Heavy_Atom_Count is 18,Formal_Charge is 0,Complexity is 311,Isotope_Atom_Count is 0,Defined_Atom_Stereocenter_Count is 0,Undefined_Atom_Stereocenter_Count is 0,Defined_Bond_Stereocenter_Count is 0,Undefined_Bond_Stereocenter_Count is 0,Covalently_Bonded_Unit_Count is 1,Compound_Is_Canonicalized is Yes,Physical_Description is Solid,Melting_Point is 210-211,Solubility is Practicallyinsoluble(14.5mg/L)atneutraloracidicpH."
acetamide,CC(=O)N,-9.71,-8.82,"cid is 11523,compound_name is 1,4-Dimethylcyclohexane,cid_paras is 11523,Molecular_Weight is 112.21,XLogP3 is 3.8,Hydrogen_Bond_Donor_Count is 0,Hydrogen_Bond_Acceptor_Count is 0,Rotatable_Bond_Count is 0,Exact_Mass is 112.125200510,Monoisotopic_Mass is 112.125200510,Topological_Polar_Surface_Area is 0,""Unit"":""Å²"",Heavy_Atom_Count is 8,Formal_Charge is 0,Complexity is 48.4,Isotope_Atom_Count is 0,Defined_Atom_Stereocenter_Count is 0,Undefined_Atom_Stereocenter_Count is 0,Defined_Bond_Stereocenter_Count is 0,Undefined_Bond_Stereocenter_Count is 0,Covalently_Bonded_Unit_Count is 1,Compound_Is_Canonicalized is Yes,Physical_Description is Clearcolorlessliquidwithanodorlikepetroleum;[CAMEO]"
dimethyl sulfate,COS(=O)(=O)OC,-5.1,-8.411,"cid is 7966,compound_name is Cyclohexanol,cid_paras is 7966,Molecular_Weight is 100.16,XLogP3 is 1.2,Hydrogen_Bond_Donor_Count is 1,Hydrogen_Bond_Acceptor_Count is 1,Rotatable_Bond_Count is 0,Exact_Mass is 100.088815002,Monoisotopic_Mass is 100.088815002,Topological_Polar_Surface_Area is 20.2,""Unit"":""Å²"",Heavy_Atom_Count is 7,Formal_Charge is 0,Complexity is 46.1,Isotope_Atom_Count is 0,Defined_Atom_Stereocenter_Count is 0,Undefined_Atom_Stereocenter_Count is 0,Defined_Bond_Stereocenter_Count is 0,Undefined_Bond_Stereocenter_Count is 0,Covalently_Bonded_Unit_Count is 1,Compound_Is_Canonicalized is Yes,Physical_Description is Cyclohexanolappearsasacolorlessliquidwithacamphor-likeodor.Solubleinmostorganicliquids.Flashpoint154°F.Maybetoxicbyinhalationorskinexposure.Vaporsarenarcoticinhighconcentrations.Irritatesskin,eyesandmucusmembranes.Usedinmakingsoap,lacquers,andplastics."",""Markup"":[{""Start"":0,""Length"":12,""URL"":""https://pubchem.ncbi.nlm.nih.gov/compound/Cyclohexanol"",""Type"":""PubChemInternalLink"",""Extra"":""CID-7966"",Color/Form is Colorlessneedlesorviscousliquid,Odor is Camphor-likeodor,Boiling_Point is 322°Fat760mmHg(NTP,1992),Melting_Point is 73°F(NTP,1992),Flash_Point is 154°F(NTP,1992),Solubility is Soluble(NTP,1992),Density is 0.947at68°F(USCG,1999)-Lessdensethanwater;willfloat"",""Markup"":[{""Start"":46,""Length"":5,""URL"":""https://pubchem.ncbi.nlm.nih.gov/compound/water"",""Type"":""PubChemInternalLink"",""Extra"":""CID-962"
"1,1,2,2-tetrachloroethane",C(C(Cl)Cl)(Cl)Cl,-2.37,-0.534,"cid is 2160,compound_name is Amitriptyline,cid_paras is 2160,Molecular_Weight is 277.4,XLogP3 is 5,Hydrogen_Bond_Donor_Count is 0,Hydrogen_Bond_Acceptor_Count is 1,Rotatable_Bond_Count is 3,Exact_Mass is 277.183049738,Monoisotopic_Mass is 277.183049738,Topological_Polar_Surface_Area is 3.2,""Unit"":""Å²"",Heavy_Atom_Count is 21,Formal_Charge is 0,Complexity is 331,Isotope_Atom_Count is 0,Defined_Atom_Stereocenter_Count is 0,Undefined_Atom_Stereocenter_Count is 0,Defined_Bond_Stereocenter_Count is 0,Undefined_Bond_Stereocenter_Count is 0,Covalently_Bonded_Unit_Count is 1,Compound_Is_Canonicalized is Yes,Physical_Description is Solid,Color/Form is Crystals,Boiling_Point is 410.26°C(roughestimate),Melting_Point is 196-197,Solubility is freelysolubleinwater"