iupac,smiles,expt,calc,Description
methyl cyclohexanecarboxylate,COC(=O)C1CCCCC1,-3.3,-4.376,"cid is 9732,compound_name is 4-Fluorophenol,cid_paras is 9732,Molecular_Weight is 112.10,XLogP3 is 1.8,Hydrogen_Bond_Donor_Count is 1,Hydrogen_Bond_Acceptor_Count is 2,Rotatable_Bond_Count is 0,Exact_Mass is 112.032442941,Monoisotopic_Mass is 112.032442941,Topological_Polar_Surface_Area is 20.2,""Unit"":""Å²"",Heavy_Atom_Count is 8,Formal_Charge is 0,Complexity is 66.9,Isotope_Atom_Count is 0,Defined_Atom_Stereocenter_Count is 0,Undefined_Atom_Stereocenter_Count is 0,Defined_Bond_Stereocenter_Count is 0,Undefined_Bond_Stereocenter_Count is 0,Covalently_Bonded_Unit_Count is 1,Compound_Is_Canonicalized is Yes,Physical_Description is Whitecrystallinesolidwithanodorlikephenol;[AlfaAesarMSDS]"",""Markup"":[{""Start"":42,""Length"":6,""URL"":""https://pubchem.ncbi.nlm.nih.gov/compound/phenol"",""Type"":""PubChemInternalLink"",""Extra"":""CID-996"
1-bromohexane,CCCCCCBr,0.18,1.076,"cid is 7240,compound_name is 2-Chloroaniline,cid_paras is 7240,Molecular_Weight is 127.57,XLogP3 is 1.9,Hydrogen_Bond_Donor_Count is 1,Hydrogen_Bond_Acceptor_Count is 1,Rotatable_Bond_Count is 0,Exact_Mass is 127.0188769,Monoisotopic_Mass is 127.0188769,Topological_Polar_Surface_Area is 26,""Unit"":""Å²"",Heavy_Atom_Count is 8,Formal_Charge is 0,Complexity is 74.9,Isotope_Atom_Count is 0,Defined_Atom_Stereocenter_Count is 0,Undefined_Atom_Stereocenter_Count is 0,Defined_Bond_Stereocenter_Count is 0,Undefined_Bond_Stereocenter_Count is 0,Covalently_Bonded_Unit_Count is 1,Compound_Is_Canonicalized is Yes,Physical_Description is O-chloroanilineisaclearamberliquidwithanamineodor.Occursinbothalphaandbetaforms.(NTP,1992)"",""Markup"":[{""Start"":0,""Length"":15,""URL"":""https://pubchem.ncbi.nlm.nih.gov/compound/O-chloroaniline"",""Type"":""PubChemInternalLink"",""Extra"":""CID-7240,Color/Form is Amberliquid,Odor is Characteristicsweetodor,Boiling_Point is 406to410°Fat760mmHg(NTP,1992),Melting_Point is 28.5°F(NTP,1992),Flash_Point is 208°F(NTP,1992),Solubility is lessthan1mg/mLat68°F(NTP,1992),Density is 1.213at68°F(NTP,1992)-Denserthanwater;willsink"",""Markup"":[{""Start"":41,""Length"":5,""URL"":""https://pubchem.ncbi.nlm.nih.gov/compound/water"",""Type"":""PubChemInternalLink"",""Extra"":""CID-962"
1-bromoheptane,CCCCCCCBr,0.34,1.223,"cid is 7247,compound_name is 1,2,4-Trimethylbenzene,cid_paras is 7247,Molecular_Weight is 120.19,XLogP3 is 3,Hydrogen_Bond_Donor_Count is 0,Hydrogen_Bond_Acceptor_Count is 0,Rotatable_Bond_Count is 0,Exact_Mass is 120.093900383,Monoisotopic_Mass is 120.093900383,Topological_Polar_Surface_Area is 0,""Unit"":""Å²"",Heavy_Atom_Count is 9,Formal_Charge is 0,Complexity is 86,Isotope_Atom_Count is 0,Defined_Atom_Stereocenter_Count is 0,Undefined_Atom_Stereocenter_Count is 0,Defined_Bond_Stereocenter_Count is 0,Undefined_Bond_Stereocenter_Count is 0,Covalently_Bonded_Unit_Count is 1,Compound_Is_Canonicalized is Yes,Physical_Description is 1,2,4-trimethylbenzeneappearsasaliquid.Flashpointnear130°F.Lessdensethanwaterandinsolubleinwater.Vaporsirritateeyes,throat,andnose.Usedindyesandpharmaceuticals."",""Markup"":[{""Start"":0,""Length"":22,""URL"":""https://pubchem.ncbi.nlm.nih.gov/compound/1%2C2%2C4-trimethylbenzene"",""Type"":""PubChemInternalLink"",""Extra"":""CID-7247"",Color/Form is Clear,colorlessliquid,Odor is Distinctive,aromaticodor,Boiling_Point is 334.4°Fat760mmHg(USCG,1999),Melting_Point is -47.2°F(USCG,1999),Flash_Point is 111°F(USCG,1999),Solubility is 0.006%(NIOSH,2024),Density is 0.889(USCG,1999)-Lessdensethanwater;willfloat"",""Markup"":[{""Start"":37,""Length"":5,""URL"":""https://pubchem.ncbi.nlm.nih.gov/compound/water"",""Type"":""PubChemInternalLink"",""Extra"":""CID-962"
1-chlorodibenzo-p-dioxin,c1ccc2c(c1)Oc3cccc(c3O2)Cl,-3.52,-4.473,"cid is 11903,compound_name is 1-Ethyl-2-methylbenzene,cid_paras is 11903,Molecular_Weight is 120.19,XLogP3 is 3.5,Hydrogen_Bond_Donor_Count is 0,Hydrogen_Bond_Acceptor_Count is 0,Rotatable_Bond_Count is 1,Exact_Mass is 120.093900383,Monoisotopic_Mass is 120.093900383,Topological_Polar_Surface_Area is 0,""Unit"":""Å²"",Heavy_Atom_Count is 9,Formal_Charge is 0,Complexity is 76.1,Isotope_Atom_Count is 0,Defined_Atom_Stereocenter_Count is 0,Undefined_Atom_Stereocenter_Count is 0,Defined_Bond_Stereocenter_Count is 0,Undefined_Bond_Stereocenter_Count is 0,Covalently_Bonded_Unit_Count is 1,Compound_Is_Canonicalized is Yes,Physical_Description is Liquid"
"3,3,3-trimethoxypropanenitrile",COC(CC#N)(OC)OC,-6.4,-5.859,"cid is 10326,compound_name is Indan,cid_paras is 10326,Molecular_Weight is 118.18,XLogP3 is 3.2,Hydrogen_Bond_Donor_Count is 0,Hydrogen_Bond_Acceptor_Count is 0,Rotatable_Bond_Count is 0,Exact_Mass is 118.078250319,Monoisotopic_Mass is 118.078250319,Topological_Polar_Surface_Area is 0,""Unit"":""Å²"",Heavy_Atom_Count is 9,Formal_Charge is 0,Complexity is 84.2,Isotope_Atom_Count is 0,Defined_Atom_Stereocenter_Count is 0,Undefined_Atom_Stereocenter_Count is 0,Defined_Bond_Stereocenter_Count is 0,Undefined_Bond_Stereocenter_Count is 0,Covalently_Bonded_Unit_Count is 1,Compound_Is_Canonicalized is Yes,Physical_Description is Liquid;[MerckIndex]Clearlightyellowliquid;[Sigma-AldrichMSDS]"
2-chlorobutane,CC[C@H](C)Cl,0.0,0.927,"cid is 7095,compound_name is Biphenyl,cid_paras is 7095,Molecular_Weight is 154.21,XLogP3 is 4,Hydrogen_Bond_Donor_Count is 0,Hydrogen_Bond_Acceptor_Count is 0,Rotatable_Bond_Count is 1,Exact_Mass is 154.078250319,Monoisotopic_Mass is 154.078250319,Topological_Polar_Surface_Area is 0,""Unit"":""Å²"",Heavy_Atom_Count is 12,Formal_Charge is 0,Complexity is 100,Isotope_Atom_Count is 0,Defined_Atom_Stereocenter_Count is 0,Undefined_Atom_Stereocenter_Count is 0,Defined_Bond_Stereocenter_Count is 0,Undefined_Bond_Stereocenter_Count is 0,Covalently_Bonded_Unit_Count is 1,Compound_Is_Canonicalized is Yes,Physical_Description is Biphenylappearsasaclearcolorlessliquidwithapleasantodor.Flashpoint180°F.Insolubleinwater.Vaporsareheavierthanair.Usedtomanufactureotherchemicalsandasafungicide."",""Markup"":[{""Start"":0,""Length"":8,""URL"":""https://pubchem.ncbi.nlm.nih.gov/compound/Biphenyl"",""Type"":""PubChemInternalLink"",""Extra"":""CID-7095"",Color/Form is Whitescales,Odor is Pleasant,peculiarodor,Boiling_Point is 489to491°Fat760mmHg(NTP,1992),Melting_Point is 156to160°F(NTP,1992),Flash_Point is 235°F(NTP,1992),Solubility is Insoluble(NTP,1992),Density is 0.992at68°F(USCG,1999)-Lessdensethanwater;willfloat"",""Markup"":[{""Start"":46,""Length"":5,""URL"":""https://pubchem.ncbi.nlm.nih.gov/compound/water"",""Type"":""PubChemInternalLink"",""Extra"":""CID-962"
hexylbenzene,CCCCCCc1ccccc1,-0.04,-0.1,"cid is 10687,compound_name is 2,3-Dimethylphenol,cid_paras is 10687,Molecular_Weight is 122.16,XLogP3 is 2.6,Hydrogen_Bond_Donor_Count is 1,Hydrogen_Bond_Acceptor_Count is 1,Rotatable_Bond_Count is 0,Exact_Mass is 122.073164938,Monoisotopic_Mass is 122.073164938,Topological_Polar_Surface_Area is 20.2,""Unit"":""Å²"",Heavy_Atom_Count is 9,Formal_Charge is 0,Complexity is 90.6,Isotope_Atom_Count is 0,Defined_Atom_Stereocenter_Count is 0,Undefined_Atom_Stereocenter_Count is 0,Defined_Bond_Stereocenter_Count is 0,Undefined_Bond_Stereocenter_Count is 0,Covalently_Bonded_Unit_Count is 1,Compound_Is_Canonicalized is Yes,Physical_Description is 2,3-dimethylphenolappearsascolorlesscrystallinesolidorbrownchunkysolid.Tastethresholdconcentration0.03mg/L.Odorthresholdconcentration0.5mg/L.(NTP,1992)"",""Markup"":[{""Start"":0,""Length"":18,""URL"":""https://pubchem.ncbi.nlm.nih.gov/compound/2%2C3-dimethylphenol"",""Type"":""PubChemInternalLink"",""Extra"":""CID-10687,Color/Form is Needlesfromwaterordilutealcohol"",""Markup"":[{""Start"":13,""Length"":5,""URL"":""https://pubchem.ncbi.nlm.nih.gov/compound/water"",""Type"":""PubChemInternalLink"",""Extra"":""CID-962,Boiling_Point is 424°Fat760mmHg(NTP,1992),Melting_Point is 167°F(NTP,1992),Flash_Point is 61-95°Cc.c.,Solubility is lessthan1mg/mLat73°F(NTP,1992),Density is 1.02-1.13g/cm³"
2-chlorosyringaldehyde,COc1cc(c(c(c1O)OC)Cl)C=O,-7.78,-8.292,"cid is 4130,compound_name is Methyl parathion,cid_paras is 4130,Molecular_Weight is 263.21,XLogP3 is 2.9,Hydrogen_Bond_Donor_Count is 0,Hydrogen_Bond_Acceptor_Count is 6,Rotatable_Bond_Count is 4,Exact_Mass is 263.00173059,Monoisotopic_Mass is 263.00173059,Topological_Polar_Surface_Area is 106,""Unit"":""Å²"",Heavy_Atom_Count is 16,Formal_Charge is 0,Complexity is 279,Isotope_Atom_Count is 0,Defined_Atom_Stereocenter_Count is 0,Undefined_Atom_Stereocenter_Count is 0,Defined_Bond_Stereocenter_Count is 0,Undefined_Bond_Stereocenter_Count is 0,Covalently_Bonded_Unit_Count is 1,Compound_Is_Canonicalized is Yes,Physical_Description is Methylparathionisawhitecrystallinesolidwhichisoftendissolvedinaliquidsolventcarrier.Thecommercialproductisatanliquid(xylenesolution)withapungentodor.Itisslightlysolubletoinsolubleinwater.Usuallywiththeliquidsolventitisacombustibleliquid.Itistoxicbyinhalation,ingestionandskinabsorption.Itisusedasaninsecticide."",""Markup"":[{""Start"":0,""Length"":16,""URL"":""https://pubchem.ncbi.nlm.nih.gov/compound/Methyl%20parathion"",""Type"":""PubChemInternalLink"",""Extra"":""CID-4130"",Color/Form is Crystals,Odor is Pungent,garlic-likeodor,Boiling_Point is 246°Fat0.13mmHg(NTP,1992),Melting_Point is 99to100°F(EPA,1998),Flash_Point is commercialproduct,containingxylene,hasflashpointof115F(EPA,1998),Solubility is lessthan1mg/mLat73°F(NTP,1992),Density is 1.358at68°F(EPA,1998)-Denserthanwater;willsink"",""Markup"":[{""Start"":41,""Length"":5,""URL"":""https://pubchem.ncbi.nlm.nih.gov/compound/water"",""Type"":""PubChemInternalLink"",""Extra"":""CID-962"
m-bis(trifluoromethyl)benzene,c1cc(cc(c1)C(F)(F)F)C(F)(F)F,1.07,-0.34,"cid is 991,compound_name is Parathion,cid_paras is 991,Molecular_Weight is 291.26,XLogP3 is 3.8,Hydrogen_Bond_Donor_Count is 0,Hydrogen_Bond_Acceptor_Count is 6,Rotatable_Bond_Count is 6,Exact_Mass is 291.03303072,Monoisotopic_Mass is 291.03303072,Topological_Polar_Surface_Area is 106,""Unit"":""Å²"",Heavy_Atom_Count is 18,Formal_Charge is 0,Complexity is 304,Isotope_Atom_Count is 0,Defined_Atom_Stereocenter_Count is 0,Undefined_Atom_Stereocenter_Count is 0,Defined_Bond_Stereocenter_Count is 0,Undefined_Bond_Stereocenter_Count is 0,Covalently_Bonded_Unit_Count is 1,Compound_Is_Canonicalized is Yes,Physical_Description is Parathionisadeepbrowntoyellowliquidwithafaintodorofgarlic.Itisanorganicphosphateinsecticidewhichactsasaninhibitorofcholinesterase,andassuchitishighlytoxicbyallroutesofexposure.Itmaybefoundasaliquidorasadrymixturewheretheliquidisabsorbedontoadrycarrier."",""Markup"":[{""Start"":0,""Length"":9,""URL"":""https://pubchem.ncbi.nlm.nih.gov/compound/Parathion"",""Type"":""PubChemInternalLink"",""Extra"":""CID-991,Color/Form is Thepurematerialisayellowishliquidattemperaturesabove6°C,Odor is Usuallyhasafaintodor,Boiling_Point is 707°Fat760mmHg(EPA,1998),Melting_Point is 43°F(EPA,1998),Flash_Point is 248to320°F(EPA,1998),Solubility is lessthan1mg/mLat73°F(NTP,1992),Density is 1.26(EPA,1998)-Denserthanwater;willsink"",""Markup"":[{""Start"":31,""Length"":5,""URL"":""https://pubchem.ncbi.nlm.nih.gov/compound/water"",""Type"":""PubChemInternalLink"",""Extra"":""CID-962"
1-benzylimidazole,c1ccc(cc1)Cn2ccnc2,-7.63,-7.997,"cid is 34468,compound_name is Dinitramine,cid_paras is 34468,Molecular_Weight is 322.24,XLogP3 is 3.2,Hydrogen_Bond_Donor_Count is 1,Hydrogen_Bond_Acceptor_Count is 9,Rotatable_Bond_Count is 3,Exact_Mass is 322.08888939,Monoisotopic_Mass is 322.08888939,Topological_Polar_Surface_Area is 121,""Unit"":""Å²"",Heavy_Atom_Count is 22,Formal_Charge is 0,Complexity is 419,Isotope_Atom_Count is 0,Defined_Atom_Stereocenter_Count is 0,Undefined_Atom_Stereocenter_Count is 0,Defined_Bond_Stereocenter_Count is 0,Undefined_Bond_Stereocenter_Count is 0,Covalently_Bonded_Unit_Count is 1,Compound_Is_Canonicalized is Yes,Physical_Description is Yellowsolid;[HSDB],Color/Form is Yellowcrystals,Melting_Point is 98.0-99.0°C,Solubility is Inacetone1040,chloroform670,benzene473,xylene227,ethanol107,hexane14(alling/Lat20°C)."",""Markup"":[{""Start"":3,""Length"":7,""URL"":""https://pubchem.ncbi.nlm.nih.gov/compound/acetone"",""Type"":""PubChemInternalLink"",""Extra"":""CID-180"",Density is 1.5g/ccat25°C"
naphthalen-1-amine,c1ccc2c(c1)cccc2N,-7.28,-7.777,"cid is 1068,compound_name is Dimethyl sulfide,cid_paras is 1068,Molecular_Weight is 62.14,XLogP3 is 0.9,Hydrogen_Bond_Donor_Count is 0,Hydrogen_Bond_Acceptor_Count is 1,Rotatable_Bond_Count is 0,Exact_Mass is 62.01902136,Monoisotopic_Mass is 62.01902136,Topological_Polar_Surface_Area is 25.3,""Unit"":""Å²"",Heavy_Atom_Count is 3,Formal_Charge is 0,Complexity is 2.8,Isotope_Atom_Count is 0,Defined_Atom_Stereocenter_Count is 0,Undefined_Atom_Stereocenter_Count is 0,Defined_Bond_Stereocenter_Count is 0,Undefined_Bond_Stereocenter_Count is 0,Covalently_Bonded_Unit_Count is 1,Compound_Is_Canonicalized is Yes,Physical_Description is Dimethylsulfideappearsasaclearcolorlesstostrawcoloredliquidwithadisagreeableodor.Flashpointlessthan0°F.Lessdensethanwaterandslightlysolubleinwater.Vaporsareheavierthanair."",""Markup"":[{""Start"":0,""Length"":16,""URL"":""https://pubchem.ncbi.nlm.nih.gov/compound/Dimethyl%20sulfide"",""Type"":""PubChemInternalLink"",""Extra"":""CID-1068"",Color/Form is Colorless,volatileliquid,Odor is UNPLEASANTODOROFWILDRADISH,CABBAGE-LIKE,Boiling_Point is 99°Fat760mmHg(USCG,1999),Melting_Point is -144°F(USCG,1999),Flash_Point is -36°F(USCG,1999),Solubility is Solubleinalcohol,ether;solubleinwateratconcentrationsbelow300mM"",""Markup"":[{""Start"":38,""Length"":5,""URL"":""https://pubchem.ncbi.nlm.nih.gov/compound/water"",""Type"":""PubChemInternalLink"",""Extra"":""CID-962,Density is 0.85at68°F(USCG,1999)-Lessdensethanwater;willfloat"",""Markup"":[{""Start"":45,""Length"":5,""URL"":""https://pubchem.ncbi.nlm.nih.gov/compound/water"",""Type"":""PubChemInternalLink"",""Extra"":""CID-962"
diethyl propanedioate,CCOC(=O)CC(=O)OCC,-6.0,-6.716,"cid is 667550,compound_name is Dexketoprofen,cid_paras is 667550,Molecular_Weight is 254.28,XLogP3 is 3.1,Hydrogen_Bond_Donor_Count is 1,Hydrogen_Bond_Acceptor_Count is 3,Rotatable_Bond_Count is 4,Exact_Mass is 254.094294304,Monoisotopic_Mass is 254.094294304,Topological_Polar_Surface_Area is 54.4,""Unit"":""Å²"",Heavy_Atom_Count is 19,Formal_Charge is 0,Complexity is 331,Isotope_Atom_Count is 0,Defined_Atom_Stereocenter_Count is 1,Undefined_Atom_Stereocenter_Count is 0,Defined_Bond_Stereocenter_Count is 0,Undefined_Bond_Stereocenter_Count is 0,Covalently_Bonded_Unit_Count is 1,Compound_Is_Canonicalized is Yes,Boiling_Point is 431.32,Melting_Point is 75"
1-cyclopropylethanone,CC(=O)C1CC1,-4.61,-3.043,"cid is 7298,compound_name is Cyclopentanol,cid_paras is 7298,Molecular_Weight is 86.13,XLogP3 is 0.8,Hydrogen_Bond_Donor_Count is 1,Hydrogen_Bond_Acceptor_Count is 1,Rotatable_Bond_Count is 0,Exact_Mass is 86.073164938,Monoisotopic_Mass is 86.073164938,Topological_Polar_Surface_Area is 20.2,""Unit"":""Å²"",Heavy_Atom_Count is 6,Formal_Charge is 0,Complexity is 37.2,Isotope_Atom_Count is 0,Defined_Atom_Stereocenter_Count is 0,Undefined_Atom_Stereocenter_Count is 0,Defined_Bond_Stereocenter_Count is 0,Undefined_Bond_Stereocenter_Count is 0,Covalently_Bonded_Unit_Count is 1,Compound_Is_Canonicalized is Yes,Physical_Description is Cyclopentanolappearsasacolorlessviscousliquidwithapleasantodor.Slightlylessdensethanwater.Vaporsheavierthanair.Usedtomakeperfumesandpharmaceuticals."",""Markup"":[{""Start"":0,""Length"":13,""URL"":""https://pubchem.ncbi.nlm.nih.gov/compound/Cyclopentanol"",""Type"":""PubChemInternalLink"",""Extra"":""CID-7298"",Color/Form is Colorless,viscousliquid,Odor is Odorofamylalcohol,somewhatlikepeppermint"",""Markup"":[{""Start"":8,""Length"":12,""URL"":""https://pubchem.ncbi.nlm.nih.gov/compound/amyl%20alcohol"",""Type"":""PubChemInternalLink"",""Extra"":""CID-6276,Boiling_Point is 140.4°C@760MMHG,Melting_Point is -19°C,Flash_Point is 124°F(NFPA,2010),Solubility is SOLINALCOHOL,ETHER,ACETONE;SLIGHTLYSOLINWATER"",""Markup"":[{""Start"":23,""Length"":7,""URL"":""https://pubchem.ncbi.nlm.nih.gov/compound/ACETONE"",""Type"":""PubChemInternalLink"",""Extra"":""CID-180"",Density is 0.9478@20°C/4°C"
pyrrole,c1cc[nH]c1,-4.78,-4.014,"cid is 12206,compound_name is Methyl valerate,cid_paras is 12206,Molecular_Weight is 116.16,XLogP3 is 2,Hydrogen_Bond_Donor_Count is 0,Hydrogen_Bond_Acceptor_Count is 2,Rotatable_Bond_Count is 4,Exact_Mass is 116.083729621,Monoisotopic_Mass is 116.083729621,Topological_Polar_Surface_Area is 26.3,""Unit"":""Å²"",Heavy_Atom_Count is 8,Formal_Charge is 0,Complexity is 68.9,Isotope_Atom_Count is 0,Defined_Atom_Stereocenter_Count is 0,Undefined_Atom_Stereocenter_Count is 0,Defined_Bond_Stereocenter_Count is 0,Undefined_Bond_Stereocenter_Count is 0,Covalently_Bonded_Unit_Count is 1,Compound_Is_Canonicalized is Yes,Physical_Description is Methylvalerateisaclearcolorlesstoyellowishoilyliquid.(NTP,1992)"",""Markup"":[{""Start"":0,""Length"":15,""URL"":""https://pubchem.ncbi.nlm.nih.gov/compound/Methyl%20valerate"",""Type"":""PubChemInternalLink"",""Extra"":""CID-12206,Boiling_Point is 259.7°Fat760mmHg(NTP,1992),Flash_Point is 72°F(NTP,1992),Solubility is lessthan1mg/mLat72°F(NTP,1992),Density is 0.8947at68°F(NTP,1992)-Lessdensethanwater;willfloat"",""Markup"":[{""Start"":46,""Length"":5,""URL"":""https://pubchem.ncbi.nlm.nih.gov/compound/water"",""Type"":""PubChemInternalLink"",""Extra"":""CID-962"
diflunisal,c1cc(c(cc1c2ccc(cc2F)F)C(=O)O)O,-9.4,-6.613,"cid is 12986,compound_name is 2-Methyl-1-pentene,cid_paras is 12986,Molecular_Weight is 84.16,XLogP3 is 3,Hydrogen_Bond_Donor_Count is 0,Hydrogen_Bond_Acceptor_Count is 0,Rotatable_Bond_Count is 2,Exact_Mass is 84.093900383,Monoisotopic_Mass is 84.093900383,Topological_Polar_Surface_Area is 0,""Unit"":""Å²"",Heavy_Atom_Count is 6,Formal_Charge is 0,Complexity is 44,Isotope_Atom_Count is 0,Defined_Atom_Stereocenter_Count is 0,Undefined_Atom_Stereocenter_Count is 0,Defined_Bond_Stereocenter_Count is 0,Undefined_Bond_Stereocenter_Count is 0,Covalently_Bonded_Unit_Count is 1,Compound_Is_Canonicalized is Yes,Physical_Description is 2-methyl-1-penteneisacolorlessliquid.Flashpoint-15°F.Floatsonwater.Irritatingvapor."",""Markup"":[{""Start"":0,""Length"":18,""URL"":""https://pubchem.ncbi.nlm.nih.gov/compound/2-methyl-1-pentene"",""Type"":""PubChemInternalLink"",""Extra"":""CID-12986"",Boiling_Point is 143.8°Fat760mmHg(USCG,1999),Melting_Point is -212.3°F(USCG,1999),Flash_Point is -15°F(est.)(USCG,1999),Density is 0.685at59°F(USCG,1999)-Lessdensethanwater;willfloat"",""Markup"":[{""Start"":46,""Length"":5,""URL"":""https://pubchem.ncbi.nlm.nih.gov/compound/water"",""Type"":""PubChemInternalLink"",""Extra"":""CID-962"
"1,4-dimethylcyclohexane",CC1CCC(CC1)C,2.11,1.918,"cid is 72099,compound_name is Esflurbiprofen,cid_paras is 72099,Molecular_Weight is 244.26,XLogP3 is 4.2,Hydrogen_Bond_Donor_Count is 1,Hydrogen_Bond_Acceptor_Count is 3,Rotatable_Bond_Count is 3,Exact_Mass is 244.08995782,Monoisotopic_Mass is 244.08995782,Topological_Polar_Surface_Area is 37.3,""Unit"":""Å²"",Heavy_Atom_Count is 18,Formal_Charge is 0,Complexity is 286,Isotope_Atom_Count is 0,Defined_Atom_Stereocenter_Count is 1,Undefined_Atom_Stereocenter_Count is 0,Defined_Bond_Stereocenter_Count is 0,Undefined_Bond_Stereocenter_Count is 0,Covalently_Bonded_Unit_Count is 1,Compound_Is_Canonicalized is Yes"